
                                 *****************
                                 * O   R   C   A *
                                 *****************

                                            #,                                       
                                            ###                                      
                                            ####                                     
                                            #####                                    
                                            ######                                   
                                           ########,                                 
                                     ,,################,,,,,                         
                               ,,#################################,,                 
                          ,,##########################################,,             
                       ,#########################################, ''#####,          
                    ,#############################################,,   '####,        
                  ,##################################################,,,,####,       
                ,###########''''           ''''###############################       
              ,#####''   ,,,,##########,,,,          '''####'''          '####       
            ,##' ,,,,###########################,,,                        '##       
           ' ,,###''''                  '''############,,,                           
         ,,##''                                '''############,,,,        ,,,,,,###''
      ,#''                                            '''#######################'''  
     '                                                          ''''####''''         
             ,#######,   #######,   ,#######,      ##                                
            ,#'     '#,  ##    ##  ,#'     '#,    #''#        ######   ,####,        
            ##       ##  ##   ,#'  ##            #'  '#       #        #'  '#        
            ##       ##  #######   ##           ,######,      #####,   #    #        
            '#,     ,#'  ##    ##  '#,     ,#' ,#      #,         ##   #,  ,#        
             '#######'   ##     ##  '#######'  #'      '#     #####' # '####'        



                  #######################################################
                  #                        -***-                        #
                  #          Department of theory and spectroscopy      #
                  #    Directorship and core code : Frank Neese         #
                  #        Max Planck Institute fuer Kohlenforschung    #
                  #                Kaiser Wilhelm Platz 1               #
                  #                 D-45470 Muelheim/Ruhr               #
                  #                      Germany                        #
                  #                                                     #
                  #                  All rights reserved                #
                  #                        -***-                        #
                  #######################################################


                         Program Version 5.0.3 -  RELEASE  -


 With contributions from (in alphabetic order):
   Daniel Aravena         : Magnetic Suceptibility
   Michael Atanasov       : Ab Initio Ligand Field Theory (pilot matlab implementation)
   Alexander A. Auer      : GIAO ZORA, VPT2 properties, NMR spectrum
   Ute Becker             : Parallelization
   Giovanni Bistoni       : ED, misc. LED, open-shell LED, HFLD
   Martin Brehm           : Molecular dynamics
   Dmytro Bykov           : SCF Hessian
   Vijay G. Chilkuri      : MRCI spin determinant printing, contributions to CSF-ICE
   Dipayan Datta          : RHF DLPNO-CCSD density
   Achintya Kumar Dutta   : EOM-CC, STEOM-CC
   Dmitry Ganyushin       : Spin-Orbit,Spin-Spin,Magnetic field MRCI
   Miquel Garcia          : C-PCM and meta-GGA Hessian, CC/C-PCM, Gaussian charge scheme
   Yang Guo               : DLPNO-NEVPT2, F12-NEVPT2, CIM, IAO-localization
   Andreas Hansen         : Spin unrestricted coupled pair/coupled cluster methods
   Benjamin Helmich-Paris : MC-RPA, TRAH-SCF, COSX integrals
   Lee Huntington         : MR-EOM, pCC
   Robert Izsak           : Overlap fitted RIJCOSX, COSX-SCS-MP3, EOM
   Marcus Kettner         : VPT2
   Christian Kollmar      : KDIIS, OOCD, Brueckner-CCSD(T), CCSD density, CASPT2, CASPT2-K
   Simone Kossmann        : Meta GGA functionals, TD-DFT gradient, OOMP2, MP2 Hessian
   Martin Krupicka        : Initial AUTO-CI
   Lucas Lang             : DCDCAS
   Marvin Lechner         : AUTO-CI (C++ implementation), FIC-MRCC
   Dagmar Lenk            : GEPOL surface, SMD
   Dimitrios Liakos       : Extrapolation schemes; Compound Job, initial MDCI parallelization
   Dimitrios Manganas     : Further ROCIS development; embedding schemes
   Dimitrios Pantazis     : SARC Basis sets
   Anastasios Papadopoulos: AUTO-CI, single reference methods and gradients
   Taras Petrenko         : DFT Hessian,TD-DFT gradient, ASA, ECA, R-Raman, ABS, FL, XAS/XES, NRVS
   Peter Pinski           : DLPNO-MP2, DLPNO-MP2 Gradient
   Christoph Reimann      : Effective Core Potentials
   Marius Retegan         : Local ZFS, SOC
   Christoph Riplinger    : Optimizer, TS searches, QM/MM, DLPNO-CCSD(T), (RO)-DLPNO pert. Triples
   Tobias Risthaus        : Range-separated hybrids, TD-DFT gradient, RPA, STAB
   Michael Roemelt        : Original ROCIS implementation
   Masaaki Saitow         : Open-shell DLPNO-CCSD energy and density
   Barbara Sandhoefer     : DKH picture change effects
   Avijit Sen             : IP-ROCIS
   Kantharuban Sivalingam : CASSCF convergence, NEVPT2, FIC-MRCI
   Bernardo de Souza      : ESD, SOC TD-DFT
   Georgi Stoychev        : AutoAux, RI-MP2 NMR, DLPNO-MP2 response
   Willem Van den Heuvel  : Paramagnetic NMR
   Boris Wezisla          : Elementary symmetry handling
   Frank Wennmohs         : Technical directorship


 We gratefully acknowledge several colleagues who have allowed us to
 interface, adapt or use parts of their codes:
   Stefan Grimme, W. Hujo, H. Kruse, P. Pracht,  : VdW corrections, initial TS optimization,
                  C. Bannwarth, S. Ehlert          DFT functionals, gCP, sTDA/sTD-DF
   Ed Valeev, F. Pavosevic, A. Kumar             : LibInt (2-el integral package), F12 methods
   Garnet Chan, S. Sharma, J. Yang, R. Olivares  : DMRG
   Ulf Ekstrom                                   : XCFun DFT Library
   Mihaly Kallay                                 : mrcc  (arbitrary order and MRCC methods)
   Jiri Pittner, Ondrej Demel                    : Mk-CCSD
   Frank Weinhold                                : gennbo (NPA and NBO analysis)
   Christopher J. Cramer and Donald G. Truhlar   : smd solvation model
   Lars Goerigk                                  : TD-DFT with DH, B97 family of functionals
   V. Asgeirsson, H. Jonsson                     : NEB implementation
   FAccTs GmbH                                   : IRC, NEB, NEB-TS, DLPNO-Multilevel, CI-OPT
                                                   MM, QMMM, 2- and 3-layer-ONIOM, Crystal-QMMM,
                                                   LR-CPCM, SF, NACMEs, symmetry and pop. for TD-DFT,
                                                   nearIR, NL-DFT gradient (VV10), updates on ESD,
                                                   ML-optimized integration grids
   S Lehtola, MJT Oliveira, MAL Marques          : LibXC Library
   Liviu Ungur et al                             : ANISO software


 Your calculation uses the libint2 library for the computation of 2-el integrals
 For citations please refer to: http://libint.valeyev.net

 Your ORCA version has been built with support for libXC version: 5.1.0
 For citations please refer to: https://tddft.org/programs/libxc/

 This ORCA versions uses:
   CBLAS   interface :  Fast vector & matrix operations
   LAPACKE interface :  Fast linear algebra routines
   SCALAPACK package :  Parallel linear algebra routines
   Shared memory     :  Shared parallel matrices
   BLAS/LAPACK       :  OpenBLAS 0.3.15  USE64BITINT DYNAMIC_ARCH NO_AFFINITY Zen SINGLE_THREADED
        Core in use  :  Zen
   Copyright (c) 2011-2014, The OpenBLAS Project


================================================================================

----- Orbital basis set information -----
Your calculation utilizes the basis: def2-SVP
   F. Weigend and R. Ahlrichs, Phys. Chem. Chem. Phys. 7, 3297 (2005).

================================================================================
                                        WARNINGS
                       Please study these warnings very carefully!
================================================================================


INFO   : the flag for use of the SHARK integral package has been found!

================================================================================
                                       INPUT FILE
================================================================================
NAME = ./ZINC000000000159/ZINC000000000159.inp
|  1> !RHF def2-SVP TightSCF PAL16 
|  2> *xyz 0 1
|  3> N -2.1048420930998057 -1.3122473991045311 1.2217212190402955
|  4> C -2.3847645714779975 -0.4450714083746091 0.28671359557363846
|  5> N -1.3900935921449575 0.13561567453120515 -0.4933818522251262
|  6> O -0.21983821165649026 -0.6453999960952852 -0.593211248080012
|  7> C 0.6036123415358013 -0.3963391618614332 0.5580440010844274
|  8> C 1.9338391780320836 0.02331911946896059 0.060403270681207225
|  9> N 3.0768313295169265 -0.6278154476587985 0.02572286996674037
| 10> C 3.918293604283408 0.30184760060533455 -0.5241671442674254
| 11> C 5.424585519970885 0.024503341645289143 -0.7853916231149888
| 12> C 6.127768893347877 -1.0778840906189842 -0.034180572774921814
| 13> C 6.4224326306764175 0.3570184324579223 0.29574126422879604
| 14> N 3.3521531240016778 1.47806492838994 -0.8185231152570244
| 15> O 2.023579706504139 1.2962147118059892 -0.4295840047496564
| 16> C -3.8356818885671813 -0.05907170339162644 0.08345291948356695
| 17> C -4.222667785614944 0.9846811759239608 -0.7493440022618214
| 18> C -5.583224941398195 1.262244877799064 -0.8619149939272449
| 19> C -6.500417895848933 0.5020575150934813 -0.14202014725351933
| 20> C -6.021915559037127 -0.5113407338198918 0.6730803226378848
| 21> N -4.712321573425842 -0.8094450880735151 0.8068975136399202
| 22> H -3.0065594028309373 -1.5996664069108568 1.6427833555905973
| 23> H -1.6866370857748616 0.43514791442450046 -1.4177451057531714
| 24> H 0.1931657057099761 0.37749583143700866 1.218684829803
| 25> H 0.693153232270712 -1.3291093955168956 1.123079658706116
| 26> H 5.728421992317859 0.19611316689270752 -1.8116274178139158
| 27> H 5.557614404274737 -1.6599117553899934 0.6822099009960928
| 28> H 6.883675078508559 -1.6474199141390378 -0.56261681606482
| 29> H 6.053469417142831 0.7454415476816797 1.2386624932886223
| 30> H 7.377509910970196 0.7673355963070317 -0.009122442781014234
| 31> H -3.5079886699535727 1.5916875536227657 -1.290275928450828
| 32> H -5.927094256982676 2.070829269403551 -1.5029690224839525
| 33> H -7.565326362630865 0.698535951831523 -0.2104982986895821
| 34> H -6.700732178618706 -1.1274317083651773 1.2574917984994844
| 35> *
| 36> 
| 37>                          ****END OF INPUT****
================================================================================

                       ****************************
                       * Single Point Calculation *
                       ****************************

---------------------------------
CARTESIAN COORDINATES (ANGSTROEM)
---------------------------------
  N     -2.104842   -1.312247    1.221721
  C     -2.384765   -0.445071    0.286714
  N     -1.390094    0.135616   -0.493382
  O     -0.219838   -0.645400   -0.593211
  C      0.603612   -0.396339    0.558044
  C      1.933839    0.023319    0.060403
  N      3.076831   -0.627815    0.025723
  C      3.918294    0.301848   -0.524167
  C      5.424586    0.024503   -0.785392
  C      6.127769   -1.077884   -0.034181
  C      6.422433    0.357018    0.295741
  N      3.352153    1.478065   -0.818523
  O      2.023580    1.296215   -0.429584
  C     -3.835682   -0.059072    0.083453
  C     -4.222668    0.984681   -0.749344
  C     -5.583225    1.262245   -0.861915
  C     -6.500418    0.502058   -0.142020
  C     -6.021916   -0.511341    0.673080
  N     -4.712322   -0.809445    0.806898
  H     -3.006559   -1.599666    1.642783
  H     -1.686637    0.435148   -1.417745
  H      0.193166    0.377496    1.218685
  H      0.693153   -1.329109    1.123080
  H      5.728422    0.196113   -1.811627
  H      5.557614   -1.659912    0.682210
  H      6.883675   -1.647420   -0.562617
  H      6.053469    0.745442    1.238662
  H      7.377510    0.767336   -0.009122
  H     -3.507989    1.591688   -1.290276
  H     -5.927094    2.070829   -1.502969
  H     -7.565326    0.698536   -0.210498
  H     -6.700732   -1.127432    1.257492

----------------------------
CARTESIAN COORDINATES (A.U.)
----------------------------
  NO LB      ZA    FRAG     MASS         X           Y           Z
   0 N     7.0000    0    14.007   -3.977575   -2.479788    2.308719
   1 C     6.0000    0    12.011   -4.506552   -0.841063    0.541810
   2 N     7.0000    0    14.007   -2.626896    0.256276   -0.932357
   3 O     8.0000    0    15.999   -0.415434   -1.219629   -1.121007
   4 C     6.0000    0    12.011    1.140662   -0.748972    1.054550
   5 C     6.0000    0    12.011    3.654426    0.044067    0.114146
   6 N     7.0000    0    14.007    5.814369   -1.186399    0.048609
   7 C     6.0000    0    12.011    7.404502    0.570409   -0.990532
   8 C     6.0000    0    12.011   10.250981    0.046305   -1.484175
   9 C     6.0000    0    12.011   11.579805   -2.036906   -0.064592
  10 C     6.0000    0    12.011   12.136639    0.674667    0.558870
  11 N     7.0000    0    14.007    6.334651    2.793138   -1.546785
  12 O     8.0000    0    15.999    3.824011    2.449491   -0.811796
  13 C     6.0000    0    12.011   -7.248388   -0.111629    0.157703
  14 C     6.0000    0    12.011   -7.979686    1.860778   -1.416055
  15 C     6.0000    0    12.011  -10.550766    2.385297   -1.628783
  16 C     6.0000    0    12.011  -12.284010    0.948751   -0.268379
  17 C     6.0000    0    12.011  -11.379771   -0.966294    1.271937
  18 N     7.0000    0    14.007   -8.904997   -1.529630    1.524815
  19 H     1.0000    0     1.008   -5.681574   -3.022931    3.104411
  20 H     1.0000    0     1.008   -3.187282    0.822310   -2.679150
  21 H     1.0000    0     1.008    0.365030    0.713364    2.302981
  22 H     1.0000    0     1.008    1.309870   -2.511653    2.122313
  23 H     1.0000    0     1.008   10.825149    0.370600   -3.423480
  24 H     1.0000    0     1.008   10.502369   -3.136779    1.289190
  25 H     1.0000    0     1.008   13.008261   -3.113172   -1.063192
  26 H     1.0000    0     1.008   11.439399    1.408680    2.340733
  27 H     1.0000    0     1.008   13.941473    1.450054   -0.017239
  28 H     1.0000    0     1.008   -6.629138    3.007854   -2.438268
  29 H     1.0000    0     1.008  -11.200585    3.913300   -2.840200
  30 H     1.0000    0     1.008  -14.296395    1.320042   -0.397784
  31 H     1.0000    0     1.008  -12.662549   -2.130537    2.376315

--------------------------------
INTERNAL COORDINATES (ANGSTROEM)
--------------------------------
 N      0   0   0     0.000000000000     0.00000000     0.00000000
 C      1   0   0     1.305599497833     0.00000000     0.00000000
 N      2   1   0     1.391084739711   121.70596809     0.00000000
 O      3   2   1     1.410478302422   113.69075680    24.98567382
 C      4   3   2     1.437181533917   108.82773437   276.41627713
 C      5   4   3     1.480966848441   107.13222806   235.13534692
 N      6   5   4     1.315906536597   130.45322436   254.06189342
 C      7   6   5     1.369200924232   102.02979875   180.88741314
 C      8   7   6     1.553728870039   122.82831838   179.97583579
 C      9   8   7     1.507993020395   119.92095098   339.07371075
 C     10   9   8     1.501539339265    60.15708484   252.10964196
 N      8   7   6     1.338150844730   115.16031811     0.26655418
 O      6   5   4     1.366895782979   116.31493238    75.20504483
 C      2   1   3     1.515081428743   118.07441253   181.14207294
 C     14   2   1     1.390226193992   122.56228238   170.79058649
 C     15  14   2     1.393136608849   118.02386924   180.29327129
 C     16  15  14     1.391896667278   119.53375527     0.34624504
 C     17  16  15     1.385759457212   118.42972316     0.22293116
 N     18  17  16     1.349744291998   123.70088535   359.74260102
 H      1   2   3     1.035855740706   106.78397808   180.70471410
 H      3   2   1     1.015925701428   115.12542314   153.09209203
 H      5   4   3     1.097147821528   112.96884330   356.15716162
 H      5   4   3     1.094231773570   108.22820301   116.59152729
 H      9   8   7     1.083940238376   113.74493779   125.04800253
 H     10   9   8     1.084918271060   118.42837677   359.95894892
 H     10   9   8     1.083978818178   117.80205629   143.86113555
 H     11  10   9     1.084484584304   117.81023370   108.60851329
 H     11  10   9     1.083270356898   118.23886650   252.52405699
 H     15  14   2     1.082511122206   122.44941977   359.10093907
 H     16  15  14     1.087660375336   120.29830752   179.98647514
 H     17  16  15     1.085045195349   121.00982996   179.89726977
 H     18  17  16     1.087150801432   120.99841111   179.69723091

---------------------------
INTERNAL COORDINATES (A.U.)
---------------------------
 N      0   0   0     0.000000000000     0.00000000     0.00000000
 C      1   0   0     2.467225491489     0.00000000     0.00000000
 N      2   1   0     2.628769187131   121.70596809     0.00000000
 O      3   2   1     2.665417709416   113.69075680    24.98567382
 C      4   3   2     2.715879503831   108.82773437   276.41627713
 C      5   4   3     2.798621756969   107.13222806   235.13534692
 N      6   5   4     2.486702972005   130.45322436   254.06189342
 C      7   6   5     2.587414769110   102.02979875   180.88741314
 C      8   7   6     2.936122050741   122.82831838   179.97583579
 C      9   8   7     2.849693820412   119.92095098   339.07371075
 C     10   9   8     2.837498130520    60.15708484   252.10964196
 N      8   7   6     2.528738622415   115.16031811     0.26655418
 O      6   5   4     2.583058683442   116.31493238    75.20504483
 C      2   1   3     2.863088970914   118.07441253   181.14207294
 C     14   2   1     2.627146770849   122.56228238   170.79058649
 C     15  14   2     2.632646657865   118.02386924   180.29327129
 C     16  15  14     2.630303507873   119.53375527     0.34624504
 C     17  16  15     2.618705861622   118.42972316     0.22293116
 N     18  17  16     2.550647062700   123.70088535   359.74260102
 H      1   2   3     1.957483664184   106.78397808   180.70471410
 H      3   2   1     1.919821348111   115.12542314   153.09209203
 H      5   4   3     2.073308911116   112.96884330   356.15716162
 H      5   4   3     2.067798379083   108.22820301   116.59152729
 H      9   8   7     2.048350196068   113.74493779   125.04800253
 H     10   9   8     2.050198409990   118.42837677   359.95894892
 H     10   9   8     2.048423101329   117.80205629   143.86113555
 H     11  10   9     2.049378860794   117.81023370   108.60851329
 H     11  10   9     2.047084303533   118.23886650   252.52405699
 H     15  14   2     2.045649557893   122.44941977   359.10093907
 H     16  15  14     2.055380236103   120.29830752   179.98647514
 H     17  16  15     2.050438262138   121.00982996   179.89726977
 H     18  17  16     2.054417280980   120.99841111   179.69723091

---------------------
BASIS SET INFORMATION
---------------------
There are 4 groups of distinct atoms

 Group   1 Type N   : 7s4p1d contracted to 3s2p1d pattern {511/31/1}
 Group   2 Type C   : 7s4p1d contracted to 3s2p1d pattern {511/31/1}
 Group   3 Type O   : 7s4p1d contracted to 3s2p1d pattern {511/31/1}
 Group   4 Type H   : 4s1p contracted to 2s1p pattern {31/1}

Atom   0N    basis set group =>   1
Atom   1C    basis set group =>   2
Atom   2N    basis set group =>   1
Atom   3O    basis set group =>   3
Atom   4C    basis set group =>   2
Atom   5C    basis set group =>   2
Atom   6N    basis set group =>   1
Atom   7C    basis set group =>   2
Atom   8C    basis set group =>   2
Atom   9C    basis set group =>   2
Atom  10C    basis set group =>   2
Atom  11N    basis set group =>   1
Atom  12O    basis set group =>   3
Atom  13C    basis set group =>   2
Atom  14C    basis set group =>   2
Atom  15C    basis set group =>   2
Atom  16C    basis set group =>   2
Atom  17C    basis set group =>   2
Atom  18N    basis set group =>   1
Atom  19H    basis set group =>   4
Atom  20H    basis set group =>   4
Atom  21H    basis set group =>   4
Atom  22H    basis set group =>   4
Atom  23H    basis set group =>   4
Atom  24H    basis set group =>   4
Atom  25H    basis set group =>   4
Atom  26H    basis set group =>   4
Atom  27H    basis set group =>   4
Atom  28H    basis set group =>   4
Atom  29H    basis set group =>   4
Atom  30H    basis set group =>   4
Atom  31H    basis set group =>   4


           ************************************************************
           *        Program running with 16 parallel MPI-processes    *
           *              working on a common directory               *
           ************************************************************
------------------------------------------------------------------------------
                           ORCA GTO INTEGRAL CALCULATION
------------------------------------------------------------------------------
------------------------------------------------------------------------------
                   ___                                                        
                  /   \      - P O W E R E D   B Y -                         
                 /     \                                                     
                 |  |  |   _    _      __       _____    __    __             
                 |  |  |  | |  | |    /  \     |  _  \  |  |  /  |          
                  \  \/   | |  | |   /    \    | | | |  |  | /  /          
                 / \  \   | |__| |  /  /\  \   | |_| |  |  |/  /          
                |  |  |   |  __  | /  /__\  \  |    /   |      \           
                |  |  |   | |  | | |   __   |  |    \   |  |\   \          
                \     /   | |  | | |  |  |  |  | |\  \  |  | \   \       
                 \___/    |_|  |_| |__|  |__|  |_| \__\ |__|  \__/        
                                                                              
                      - O R C A' S   B I G   F R I E N D -                    
                                      &                                       
                       - I N T E G R A L  F E E D E R -                       
                                                                              
 v1 FN, 2020, v2 2021                                                         
------------------------------------------------------------------------------


Reading SHARK input file ./ZINC000000000159/ZINC000000000159.SHARKINP.tmp ... ok
----------------------
SHARK INTEGRAL PACKAGE
----------------------

Number of atoms                             ...     32
Number of basis functions                   ...    331
Number of shells                            ...    153
Maximum angular momentum                    ...      2
Integral batch strategy                     ... SHARK/LIBINT Hybrid
RI-J (if used) integral strategy            ... SPLIT-RIJ (Revised 2003 algorithm where possible)
Printlevel                                  ...      1
Contraction scheme used                     ... SEGMENTED contraction
Coulomb Range Separation                    ... NOT USED
Exchange Range Separation                   ... NOT USED
Finite Nucleus Model                        ... NOT USED
Auxiliary Coulomb fitting basis             ... NOT available
Auxiliary J/K fitting basis                 ... NOT available
Auxiliary Correlation fitting basis         ... NOT available
Auxiliary 'external' fitting basis          ... NOT available
Integral threshold                          ...     2.500000e-11
Primitive cut-off                           ...     2.500000e-12
Primitive pair pre-selection threshold      ...     2.500000e-12

Calculating pre-screening integrals         ... done (  0.0 sec) Dimension = 153
Organizing shell pair data                  ... done (  0.0 sec)
Shell pair information
Total number of shell pairs                 ...     11781
Shell pairs after pre-screening             ...      7412
Total number of primitive shell pairs       ...     43357
Primitive shell pairs kept                  ...     18028
          la=0 lb=0:   2228 shell pairs
          la=1 lb=0:   2720 shell pairs
          la=1 lb=1:    877 shell pairs
          la=2 lb=0:    912 shell pairs
          la=2 lb=1:    575 shell pairs
          la=2 lb=2:    100 shell pairs

Calculating one electron integrals          ... done (  0.0 sec)
Calculating Nuclear repulsion               ... done (  0.0 sec) ENN=   1289.014378757567 Eh

SHARK setup successfully completed in   0.2 seconds

Maximum memory used throughout the entire GTOINT-calculation: 13.5 MB


           ************************************************************
           *        Program running with 16 parallel MPI-processes    *
           *              working on a common directory               *
           ************************************************************
-------------------------------------------------------------------------------
                                 ORCA SCF
-------------------------------------------------------------------------------

------------
SCF SETTINGS
------------
Hamiltonian:
 Ab initio Hamiltonian  Method          .... Hartree-Fock(GTOs)


General Settings:
 Integral files         IntName         .... ./ZINC000000000159/ZINC000000000159
 Hartree-Fock type      HFTyp           .... RHF
 Total Charge           Charge          ....    0
 Multiplicity           Mult            ....    1
 Number of Electrons    NEL             ....  136
 Basis Dimension        Dim             ....  331
 Nuclear Repulsion      ENuc            ....   1289.0143787576 Eh

Convergence Acceleration:
 DIIS                   CNVDIIS         .... on
   Start iteration      DIISMaxIt       ....    12
   Startup error        DIISStart       ....  0.200000
   # of expansion vecs  DIISMaxEq       ....     5
   Bias factor          DIISBfac        ....   1.050
   Max. coefficient     DIISMaxC        ....  10.000
 Trust-Rad. Augm. Hess. CNVTRAH         .... auto
   Auto Start mean grad. ratio tolernc. ....  1.125000
   Auto Start start iteration           ....    20
   Auto Start num. interpolation iter.  ....    10
   Max. Number of Micro iterations      ....    16
   Max. Number of Macro iterations      .... Maxiter - #DIIS iter
   Number of Davidson start vectors     ....     2
   Converg. threshold I  (grad. norm)   ....   1.000e-05
   Converg. threshold II (energy diff.) ....   1.000e-08
   Grad. Scal. Fac. for Micro threshold ....   0.100
   Minimum threshold for Micro iter.    ....   0.010
   NR start threshold (gradient norm)   ....   0.001
   Initial trust radius                 ....   0.400
   Minimum AH scaling param. (alpha)    ....   1.000
   Maximum AH scaling param. (alpha)    .... 1000.000
   Orbital update algorithm             .... Taylor
   White noise on init. David. guess    .... on
   Maximum white noise                  ....   0.010
   Quad. conv. algorithm                .... NR
 SOSCF                  CNVSOSCF        .... on
   Start iteration      SOSCFMaxIt      ....   150
   Startup grad/error   SOSCFStart      ....  0.003300
 Level Shifting         CNVShift        .... on
   Level shift para.    LevelShift      ....    0.2500
   Turn off err/grad.   ShiftErr        ....    0.0010
 Zerner damping         CNVZerner       .... off
 Static damping         CNVDamp         .... on
   Fraction old density DampFac         ....    0.7000
   Max. Damping (<1)    DampMax         ....    0.9800
   Min. Damping (>=0)   DampMin         ....    0.0000
   Turn off err/grad.   DampErr         ....    0.1000
 Fernandez-Rico         CNVRico         .... off

SCF Procedure:
 Maximum # iterations   MaxIter         ....   125
 SCF integral mode      SCFMode         .... Direct
   Integral package                     .... SHARK and LIBINT hybrid scheme
 Reset frequency        DirectResetFreq ....    20
 Integral Threshold     Thresh          ....  2.500e-11 Eh
 Primitive CutOff       TCut            ....  2.500e-12 Eh

Convergence Tolerance:
 Convergence Check Mode ConvCheckMode   .... Total+1el-Energy
 Convergence forced     ConvForced      .... 0
 Energy Change          TolE            ....  1.000e-08 Eh
 1-El. energy change                    ....  1.000e-05 Eh
 Orbital Gradient       TolG            ....  1.000e-05
 Orbital Rotation angle TolX            ....  1.000e-05
 DIIS Error             TolErr          ....  5.000e-07


Diagonalization of the overlap matrix:
Smallest eigenvalue                        ... 5.701e-04
Time for diagonalization                   ...    0.013 sec
Threshold for overlap eigenvalues          ... 1.000e-08
Number of eigenvalues below threshold      ... 0
Time for construction of square roots      ...    0.007 sec
Total time needed                          ...    0.021 sec

Time for model grid setup =    0.121 sec

------------------------------
INITIAL GUESS: MODEL POTENTIAL
------------------------------
Loading Hartree-Fock densities                     ... done
Calculating cut-offs                               ... done
Initializing the effective Hamiltonian             ... done
Setting up the integral package (SHARK)            ... done
Starting the Coulomb interaction                   ... done (   0.0 sec)
Reading the grid                                   ... done
Mapping shells                                     ... done
Starting the XC term evaluation                    ... done (   0.0 sec)
Transforming the Hamiltonian                       ... done (   0.0 sec)
Diagonalizing the Hamiltonian                      ... done (   0.0 sec)
Back transforming the eigenvectors                 ... done (   0.0 sec)
Now organizing SCF variables                       ... done
                      ------------------
                      INITIAL GUESS DONE (   0.2 sec)
                      ------------------
--------------
SCF ITERATIONS
--------------
ITER       Energy         Delta-E        Max-DP      RMS-DP      [F,P]     Damp
               ***  Starting incremental Fock matrix formation  ***
  0   -882.5144704985   0.000000000000 0.07529640  0.00166651  0.2514873 0.7000
  1   -882.7150412194  -0.200570720870 0.05072698  0.00129281  0.1479377 0.7000
                               ***Turning on DIIS***
  2   -882.8368845693  -0.121843349898 0.09902481  0.00292754  0.0784550 0.0000
  3   -882.2059304138   0.630954155480 0.05362075  0.00078038  0.0641841 0.0000
  4   -883.1919749443  -0.986044530506 0.01505479  0.00027439  0.0098089 0.0000
  5   -883.1187159684   0.073258975920 0.00819746  0.00014135  0.0051539 0.0000
                      *** Initiating the SOSCF procedure ***
                           *** Shutting down DIIS ***
                      *** Re-Reading the Fockian *** 
                      *** Removing any level shift *** 
ITER      Energy       Delta-E        Grad      Rot      Max-DP    RMS-DP
  6   -883.08773440   0.0309815687  0.002208  0.002208  0.003704  0.000074
               *** Restarting incremental Fock matrix formation ***
  7   -883.09873626  -0.0110018560  0.000876  0.002081  0.001821  0.000039
  8   -883.09877758  -0.0000413259  0.000533  0.002267  0.001912  0.000050
  9   -883.09879507  -0.0000174932  0.000244  0.000314  0.000472  0.000008
 10   -883.09879649  -0.0000014130  0.000060  0.000075  0.000209  0.000003
 11   -883.09879677  -0.0000002820  0.000019  0.000059  0.000079  0.000002
 12   -883.09879681  -0.0000000452  0.000018  0.000054  0.000037  0.000001
 13   -883.09879682  -0.0000000094  0.000004  0.000016  0.000010  0.000000
                  ***Gradient check signals convergence***
              ***Rediagonalizing the Fockian in SOSCF/NRSCF***

               *****************************************************
               *                     SUCCESS                       *
               *           SCF CONVERGED AFTER  14 CYCLES          *
               *****************************************************


----------------
TOTAL SCF ENERGY
----------------

Total Energy       :         -883.09879683 Eh          -24030.33994 eV

Components:
Nuclear Repulsion  :         1289.01437876 Eh           35075.86447 eV
Electronic Energy  :        -2172.11317558 Eh          -59106.20441 eV
One Electron Energy:        -3762.42578765 Eh         -102380.81062 eV
Two Electron Energy:         1590.31261207 Eh           43274.60621 eV

Virial components:
Potential Energy   :        -1761.89062358 Eh          -47943.48127 eV
Kinetic Energy     :          878.79182675 Eh           23913.14133 eV
Virial Ratio       :            2.00490101


---------------
SCF CONVERGENCE
---------------

  Last Energy change         ...   -1.3561e-09  Tolerance :   1.0000e-08
  Last MAX-Density change    ...    8.0314e-06  Tolerance :   1.0000e-07
  Last RMS-Density change    ...    1.6805e-07  Tolerance :   5.0000e-09
  Last Orbital Gradient      ...    1.7666e-06  Tolerance :   1.0000e-05
  Last Orbital Rotation      ...    9.2046e-06  Tolerance :   1.0000e-05

             **** THE GBW FILE WAS UPDATED (./ZINC000000000159/ZINC000000000159.gbw) ****
             **** DENSITY ./ZINC000000000159/ZINC000000000159.scfp WAS UPDATED ****
             **** ENERGY FILE WAS UPDATED (./ZINC000000000159/ZINC000000000159.en.tmp) ****
             **** THE GBW FILE WAS UPDATED (./ZINC000000000159/ZINC000000000159.gbw) ****
             **** DENSITY ./ZINC000000000159/ZINC000000000159.scfp WAS UPDATED ****
----------------
ORBITAL ENERGIES
----------------

  NO   OCC          E(Eh)            E(eV) 
   0   2.0000     -20.646908      -561.8309 
   1   2.0000     -20.608819      -560.7945 
   2   2.0000     -15.638298      -425.5397 
   3   2.0000     -15.617501      -424.9738 
   4   2.0000     -15.595874      -424.3853 
   5   2.0000     -15.576499      -423.8581 
   6   2.0000     -15.536788      -422.7775 
   7   2.0000     -11.360722      -309.1410 
   8   2.0000     -11.327772      -308.2444 
   9   2.0000     -11.319253      -308.0125 
  10   2.0000     -11.316849      -307.9471 
  11   2.0000     -11.306736      -307.6719 
  12   2.0000     -11.306187      -307.6570 
  13   2.0000     -11.289043      -307.1905 
  14   2.0000     -11.275074      -306.8104 
  15   2.0000     -11.269253      -306.6520 
  16   2.0000     -11.256712      -306.3107 
  17   2.0000     -11.239393      -305.8394 
  18   2.0000     -11.236842      -305.7700 
  19   2.0000      -1.495190       -40.6862 
  20   2.0000      -1.428485       -38.8711 
  21   2.0000      -1.278288       -34.7840 
  22   2.0000      -1.241442       -33.7814 
  23   2.0000      -1.209740       -32.9187 
  24   2.0000      -1.155245       -31.4358 
  25   2.0000      -1.130750       -30.7693 
  26   2.0000      -1.114057       -30.3150 
  27   2.0000      -1.097660       -29.8688 
  28   2.0000      -1.053123       -28.6569 
  29   2.0000      -0.969270       -26.3752 
  30   2.0000      -0.891325       -24.2542 
  31   2.0000      -0.878775       -23.9127 
  32   2.0000      -0.877515       -23.8784 
  33   2.0000      -0.828859       -22.5544 
  34   2.0000      -0.815557       -22.1924 
  35   2.0000      -0.797879       -21.7114 
  36   2.0000      -0.781909       -21.2768 
  37   2.0000      -0.767567       -20.8866 
  38   2.0000      -0.717748       -19.5309 
  39   2.0000      -0.702583       -19.1182 
  40   2.0000      -0.690629       -18.7930 
  41   2.0000      -0.683292       -18.5933 
  42   2.0000      -0.680436       -18.5156 
  43   2.0000      -0.664922       -18.0934 
  44   2.0000      -0.654032       -17.7971 
  45   2.0000      -0.643158       -17.5012 
  46   2.0000      -0.631535       -17.1849 
  47   2.0000      -0.620439       -16.8830 
  48   2.0000      -0.604944       -16.4614 
  49   2.0000      -0.600413       -16.3381 
  50   2.0000      -0.580288       -15.7904 
  51   2.0000      -0.560657       -15.2563 
  52   2.0000      -0.549918       -14.9640 
  53   2.0000      -0.529767       -14.4157 
  54   2.0000      -0.524879       -14.2827 
  55   2.0000      -0.521205       -14.1827 
  56   2.0000      -0.505852       -13.7649 
  57   2.0000      -0.478355       -13.0167 
  58   2.0000      -0.468812       -12.7570 
  59   2.0000      -0.464754       -12.6466 
  60   2.0000      -0.453333       -12.3358 
  61   2.0000      -0.436255       -11.8711 
  62   2.0000      -0.433144       -11.7864 
  63   2.0000      -0.429483       -11.6868 
  64   2.0000      -0.410904       -11.1813 
  65   2.0000      -0.388693       -10.5769 
  66   2.0000      -0.378509       -10.2997 
  67   2.0000      -0.354168        -9.6374 
  68   0.0000       0.067089         1.8256 
  69   0.0000       0.092334         2.5125 
  70   0.0000       0.112010         3.0479 
  71   0.0000       0.162783         4.4295 
  72   0.0000       0.184374         5.0171 
  73   0.0000       0.187129         5.0920 
  74   0.0000       0.204352         5.5607 
  75   0.0000       0.210019         5.7149 
  76   0.0000       0.214561         5.8385 
  77   0.0000       0.218151         5.9362 
  78   0.0000       0.229188         6.2365 
  79   0.0000       0.237960         6.4752 
  80   0.0000       0.243856         6.6357 
  81   0.0000       0.252547         6.8721 
  82   0.0000       0.259810         7.0698 
  83   0.0000       0.265049         7.2124 
  84   0.0000       0.283270         7.7082 
  85   0.0000       0.291990         7.9454 
  86   0.0000       0.307259         8.3609 
  87   0.0000       0.312342         8.4992 
  88   0.0000       0.337745         9.1905 
  89   0.0000       0.339350         9.2342 
  90   0.0000       0.348952         9.4955 
  91   0.0000       0.364950         9.9308 
  92   0.0000       0.378731        10.3058 
  93   0.0000       0.395590        10.7645 
  94   0.0000       0.405648        11.0382 
  95   0.0000       0.416992        11.3469 
  96   0.0000       0.425924        11.5900 
  97   0.0000       0.432906        11.7800 
  98   0.0000       0.436621        11.8811 
  99   0.0000       0.454317        12.3626 
 100   0.0000       0.458485        12.4760 
 101   0.0000       0.461672        12.5627 
 102   0.0000       0.488954        13.3051 
 103   0.0000       0.503244        13.6940 
 104   0.0000       0.520500        14.1635 
 105   0.0000       0.537732        14.6324 
 106   0.0000       0.560219        15.2443 
 107   0.0000       0.573801        15.6139 
 108   0.0000       0.587915        15.9980 
 109   0.0000       0.610658        16.6169 
 110   0.0000       0.622736        16.9455 
 111   0.0000       0.631466        17.1831 
 112   0.0000       0.651367        17.7246 
 113   0.0000       0.654564        17.8116 
 114   0.0000       0.655706        17.8427 
 115   0.0000       0.662885        18.0380 
 116   0.0000       0.690616        18.7926 
 117   0.0000       0.693451        18.8698 
 118   0.0000       0.700478        19.0610 
 119   0.0000       0.703453        19.1419 
 120   0.0000       0.712072        19.3765 
 121   0.0000       0.722096        19.6492 
 122   0.0000       0.732351        19.9283 
 123   0.0000       0.740739        20.1565 
 124   0.0000       0.754287        20.5252 
 125   0.0000       0.765347        20.8261 
 126   0.0000       0.775057        21.0904 
 127   0.0000       0.789353        21.4794 
 128   0.0000       0.789670        21.4880 
 129   0.0000       0.806378        21.9427 
 130   0.0000       0.829917        22.5832 
 131   0.0000       0.834472        22.7071 
 132   0.0000       0.835187        22.7266 
 133   0.0000       0.842478        22.9250 
 134   0.0000       0.849043        23.1036 
 135   0.0000       0.851604        23.1733 
 136   0.0000       0.852922        23.2092 
 137   0.0000       0.864347        23.5201 
 138   0.0000       0.868545        23.6343 
 139   0.0000       0.879781        23.9400 
 140   0.0000       0.884165        24.0594 
 141   0.0000       0.887515        24.1505 
 142   0.0000       0.897359        24.4184 
 143   0.0000       0.900692        24.5091 
 144   0.0000       0.902200        24.5501 
 145   0.0000       0.905709        24.6456 
 146   0.0000       0.913968        24.8703 
 147   0.0000       0.921212        25.0675 
 148   0.0000       0.924526        25.1576 
 149   0.0000       0.927299        25.2331 
 150   0.0000       0.936169        25.4744 
 151   0.0000       0.942451        25.6454 
 152   0.0000       0.954359        25.9694 
 153   0.0000       0.956589        26.0301 
 154   0.0000       0.973480        26.4897 
 155   0.0000       0.983205        26.7544 
 156   0.0000       0.993463        27.0335 
 157   0.0000       1.021767        27.8037 
 158   0.0000       1.022528        27.8244 
 159   0.0000       1.030349        28.0372 
 160   0.0000       1.046648        28.4808 
 161   0.0000       1.064315        28.9615 
 162   0.0000       1.077038        29.3077 
 163   0.0000       1.088214        29.6118 
 164   0.0000       1.104214        30.0472 
 165   0.0000       1.110677        30.2231 
 166   0.0000       1.126292        30.6480 
 167   0.0000       1.138424        30.9781 
 168   0.0000       1.151610        31.3369 
 169   0.0000       1.163561        31.6621 
 170   0.0000       1.173723        31.9386 
 171   0.0000       1.180217        32.1153 
 172   0.0000       1.191144        32.4127 
 173   0.0000       1.200490        32.6670 
 174   0.0000       1.206710        32.8362 
 175   0.0000       1.223715        33.2990 
 176   0.0000       1.263390        34.3786 
 177   0.0000       1.285700        34.9857 
 178   0.0000       1.296392        35.2766 
 179   0.0000       1.311712        35.6935 
 180   0.0000       1.333058        36.2744 
 181   0.0000       1.354103        36.8470 
 182   0.0000       1.361389        37.0453 
 183   0.0000       1.385363        37.6976 
 184   0.0000       1.409002        38.3409 
 185   0.0000       1.414661        38.4949 
 186   0.0000       1.451474        39.4966 
 187   0.0000       1.477213        40.1970 
 188   0.0000       1.479488        40.2589 
 189   0.0000       1.483167        40.3590 
 190   0.0000       1.492287        40.6072 
 191   0.0000       1.496664        40.7263 
 192   0.0000       1.541502        41.9464 
 193   0.0000       1.547125        42.0994 
 194   0.0000       1.554105        42.2893 
 195   0.0000       1.566971        42.6394 
 196   0.0000       1.581612        43.0379 
 197   0.0000       1.601856        43.5887 
 198   0.0000       1.605577        43.6900 
 199   0.0000       1.614524        43.9334 
 200   0.0000       1.638705        44.5914 
 201   0.0000       1.668875        45.4124 
 202   0.0000       1.702882        46.3378 
 203   0.0000       1.714129        46.6438 
 204   0.0000       1.739678        47.3390 
 205   0.0000       1.761875        47.9431 
 206   0.0000       1.777658        48.3725 
 207   0.0000       1.788760        48.6746 
 208   0.0000       1.805923        49.1417 
 209   0.0000       1.811915        49.3047 
 210   0.0000       1.844602        50.1942 
 211   0.0000       1.853417        50.4340 
 212   0.0000       1.873603        50.9833 
 213   0.0000       1.886404        51.3317 
 214   0.0000       1.904576        51.8261 
 215   0.0000       1.916745        52.1573 
 216   0.0000       1.937755        52.7290 
 217   0.0000       1.954072        53.1730 
 218   0.0000       1.957877        53.2765 
 219   0.0000       1.963852        53.4391 
 220   0.0000       1.976002        53.7697 
 221   0.0000       1.980453        53.8909 
 222   0.0000       1.992313        54.2136 
 223   0.0000       2.010415        54.7062 
 224   0.0000       2.015886        54.8550 
 225   0.0000       2.035328        55.3841 
 226   0.0000       2.038243        55.4634 
 227   0.0000       2.044482        55.6332 
 228   0.0000       2.052226        55.8439 
 229   0.0000       2.054613        55.9089 
 230   0.0000       2.060543        56.0702 
 231   0.0000       2.072486        56.3952 
 232   0.0000       2.081984        56.6537 
 233   0.0000       2.092484        56.9394 
 234   0.0000       2.107466        57.3471 
 235   0.0000       2.109750        57.4092 
 236   0.0000       2.167398        58.9779 
 237   0.0000       2.184758        59.4503 
 238   0.0000       2.197336        59.7926 
 239   0.0000       2.203354        59.9563 
 240   0.0000       2.206707        60.0475 
 241   0.0000       2.225101        60.5481 
 242   0.0000       2.233218        60.7690 
 243   0.0000       2.237217        60.8778 
 244   0.0000       2.245424        61.1011 
 245   0.0000       2.255003        61.3617 
 246   0.0000       2.260109        61.5007 
 247   0.0000       2.271845        61.8201 
 248   0.0000       2.292709        62.3878 
 249   0.0000       2.306351        62.7590 
 250   0.0000       2.327626        63.3379 
 251   0.0000       2.340449        63.6869 
 252   0.0000       2.359655        64.2095 
 253   0.0000       2.367444        64.4214 
 254   0.0000       2.398760        65.2736 
 255   0.0000       2.417626        65.7870 
 256   0.0000       2.423089        65.9356 
 257   0.0000       2.440883        66.4198 
 258   0.0000       2.443942        66.5030 
 259   0.0000       2.466892        67.1275 
 260   0.0000       2.470531        67.2266 
 261   0.0000       2.506345        68.2011 
 262   0.0000       2.509181        68.2783 
 263   0.0000       2.522669        68.6453 
 264   0.0000       2.531218        68.8779 
 265   0.0000       2.551917        69.4412 
 266   0.0000       2.579697        70.1971 
 267   0.0000       2.581747        70.2529 
 268   0.0000       2.593613        70.5758 
 269   0.0000       2.622543        71.3630 
 270   0.0000       2.659743        72.3753 
 271   0.0000       2.663899        72.4884 
 272   0.0000       2.688142        73.1481 
 273   0.0000       2.699249        73.4503 
 274   0.0000       2.708146        73.6924 
 275   0.0000       2.713805        73.8464 
 276   0.0000       2.728501        74.2463 
 277   0.0000       2.749834        74.8268 
 278   0.0000       2.752407        74.8968 
 279   0.0000       2.781019        75.6754 
 280   0.0000       2.808163        76.4140 
 281   0.0000       2.848391        77.5086 
 282   0.0000       2.863775        77.9273 
 283   0.0000       2.884908        78.5023 
 284   0.0000       2.889323        78.6225 
 285   0.0000       2.902711        78.9868 
 286   0.0000       2.922906        79.5363 
 287   0.0000       2.937378        79.9301 
 288   0.0000       2.953329        80.3642 
 289   0.0000       2.973872        80.9232 
 290   0.0000       2.988623        81.3246 
 291   0.0000       3.004712        81.7624 
 292   0.0000       3.043500        82.8178 
 293   0.0000       3.045432        82.8704 
 294   0.0000       3.050089        82.9971 
 295   0.0000       3.070907        83.5636 
 296   0.0000       3.077624        83.7464 
 297   0.0000       3.120311        84.9080 
 298   0.0000       3.141446        85.4831 
 299   0.0000       3.144906        85.5772 
 300   0.0000       3.158418        85.9449 
 301   0.0000       3.172030        86.3153 
 302   0.0000       3.184092        86.6436 
 303   0.0000       3.229018        87.8661 
 304   0.0000       3.242681        88.2378 
 305   0.0000       3.253444        88.5307 
 306   0.0000       3.286500        89.4302 
 307   0.0000       3.303429        89.8909 
 308   0.0000       3.315914        90.2306 
 309   0.0000       3.329230        90.5930 
 310   0.0000       3.352783        91.2339 
 311   0.0000       3.375140        91.8422 
 312   0.0000       3.401298        92.5540 
 313   0.0000       3.421393        93.1008 
 314   0.0000       3.425904        93.2236 
 315   0.0000       3.431703        93.3814 
 316   0.0000       3.445133        93.7468 
 317   0.0000       3.488200        94.9187 
 318   0.0000       3.492582        95.0380 
 319   0.0000       3.504787        95.3701 
 320   0.0000       3.551571        96.6432 
 321   0.0000       3.583842        97.5213 
 322   0.0000       3.644327        99.1672 
 323   0.0000       3.678125       100.0869 
 324   0.0000       3.699703       100.6740 
 325   0.0000       3.774601       102.7121 
 326   0.0000       3.784926       102.9931 
 327   0.0000       3.811802       103.7244 
 328   0.0000       4.001798       108.8945 
 329   0.0000       4.082928       111.1021 
 330   0.0000       4.094548       111.4183 

                    ********************************
                    * MULLIKEN POPULATION ANALYSIS *
                    ********************************

-----------------------
MULLIKEN ATOMIC CHARGES
-----------------------
   0 N :   -0.288850
   1 C :    0.254950
   2 N :   -0.143319
   3 O :   -0.456744
   4 C :    0.424611
   5 C :    0.296598
   6 N :   -0.369926
   7 C :    0.187048
   8 C :   -0.157613
   9 C :   -0.031171
  10 C :   -0.049758
  11 N :   -0.080194
  12 O :   -0.393373
  13 C :    0.073252
  14 C :   -0.067359
  15 C :    0.048049
  16 C :   -0.114743
  17 C :    0.180420
  18 N :   -0.390471
  19 H :    0.156094
  20 H :    0.169091
  21 H :    0.077240
  22 H :    0.077027
  23 H :    0.082266
  24 H :    0.081319
  25 H :    0.059803
  26 H :    0.067673
  27 H :    0.064347
  28 H :    0.054317
  29 H :    0.062583
  30 H :    0.062044
  31 H :    0.064791
Sum of atomic charges:    0.0000000

--------------------------------
MULLIKEN REDUCED ORBITAL CHARGES
--------------------------------
  0 N s       :     3.553701  s :     3.553701
      pz      :     1.128001  p :     3.708103
      px      :     1.406016
      py      :     1.174085
      dz2     :     0.006117  d :     0.027046
      dxz     :     0.004902
      dyz     :     0.005546
      dx2y2   :     0.007251
      dxy     :     0.003231
  1 C s       :     3.040786  s :     3.040786
      pz      :     0.913663  p :     2.610298
      px      :     0.834880
      py      :     0.861756
      dz2     :     0.023886  d :     0.093967
      dxz     :     0.022656
      dyz     :     0.012205
      dx2y2   :     0.015126
      dxy     :     0.020092
  2 N s       :     3.416469  s :     3.416469
      pz      :     1.248963  p :     3.685485
      px      :     0.955834
      py      :     1.480687
      dz2     :     0.008416  d :     0.041365
      dxz     :     0.009512
      dyz     :     0.002686
      dx2y2   :     0.006013
      dxy     :     0.014738
  3 O s       :     3.852956  s :     3.852956
      pz      :     1.616172  p :     4.581607
      px      :     1.264555
      py      :     1.700880
      dz2     :     0.005003  d :     0.022180
      dxz     :     0.004690
      dyz     :     0.002614
      dx2y2   :     0.002914
      dxy     :     0.006960
  4 C s       :     2.944762  s :     2.944762
      pz      :     0.779158  p :     2.562620
      px      :     0.767717
      py      :     1.015745
      dz2     :     0.012483  d :     0.068007
      dxz     :     0.019784
      dyz     :     0.014445
      dx2y2   :     0.012528
      dxy     :     0.008767
  5 C s       :     3.086650  s :     3.086650
      pz      :     0.804090  p :     2.510062
      px      :     0.979002
      py      :     0.726970
      dz2     :     0.008716  d :     0.106691
      dxz     :     0.016088
      dyz     :     0.019060
      dx2y2   :     0.038435
      dxy     :     0.024391
  6 N s       :     3.603636  s :     3.603636
      pz      :     1.250426  p :     3.730623
      px      :     1.037843
      py      :     1.442354
      dz2     :     0.004312  d :     0.035667
      dxz     :     0.004630
      dyz     :     0.007093
      dx2y2   :     0.005419
      dxy     :     0.014213
  7 C s       :     3.062484  s :     3.062484
      pz      :     0.879819  p :     2.661396
      px      :     0.985628
      py      :     0.795948
      dz2     :     0.009771  d :     0.089072
      dxz     :     0.012035
      dyz     :     0.015489
      dx2y2   :     0.025380
      dxy     :     0.026397
  8 C s       :     3.209771  s :     3.209771
      pz      :     1.004925  p :     2.896159
      px      :     0.838337
      py      :     1.052897
      dz2     :     0.011090  d :     0.051684
      dxz     :     0.012117
      dyz     :     0.008483
      dx2y2   :     0.012107
      dxy     :     0.007886
  9 C s       :     3.113020  s :     3.113020
      pz      :     1.001575  p :     2.872307
      px      :     0.995302
      py      :     0.875430
      dz2     :     0.004338  d :     0.045844
      dxz     :     0.008494
      dyz     :     0.012164
      dx2y2   :     0.008891
      dxy     :     0.011957
 10 C s       :     3.126791  s :     3.126791
      pz      :     0.961964  p :     2.876804
      px      :     0.954222
      py      :     0.960619
      dz2     :     0.008358  d :     0.046163
      dxz     :     0.011002
      dyz     :     0.007760
      dx2y2   :     0.011229
      dxy     :     0.007814
 11 N s       :     3.667385  s :     3.667385
      pz      :     1.284303  p :     3.365565
      px      :     0.705655
      py      :     1.375606
      dz2     :     0.005775  d :     0.047244
      dxz     :     0.009012
      dyz     :     0.006904
      dx2y2   :     0.016319
      dxy     :     0.009234
 12 O s       :     3.821416  s :     3.821416
      pz      :     1.656958  p :     4.545603
      px      :     1.424553
      py      :     1.464092
      dz2     :     0.003631  d :     0.026354
      dxz     :     0.003747
      dyz     :     0.004089
      dx2y2   :     0.011268
      dxy     :     0.003619
 13 C s       :     3.052594  s :     3.052594
      pz      :     0.915924  p :     2.804726
      px      :     0.967148
      py      :     0.921654
      dz2     :     0.012342  d :     0.069429
      dxz     :     0.012355
      dyz     :     0.010697
      dx2y2   :     0.019455
      dxy     :     0.014581
 14 C s       :     3.127025  s :     3.127025
      pz      :     0.993894  p :     2.898873
      px      :     0.939362
      py      :     0.965618
      dz2     :     0.005567  d :     0.041460
      dxz     :     0.008466
      dyz     :     0.006259
      dx2y2   :     0.010950
      dxy     :     0.010219
 15 C s       :     3.104915  s :     3.104915
      pz      :     0.914669  p :     2.801584
      px      :     0.961742
      py      :     0.925174
      dz2     :     0.005786  d :     0.045451
      dxz     :     0.010622
      dyz     :     0.005827
      dx2y2   :     0.011402
      dxy     :     0.011815
 16 C s       :     3.147124  s :     3.147124
      pz      :     0.990083  p :     2.925754
      px      :     0.959870
      py      :     0.975801
      dz2     :     0.006234  d :     0.041865
      dxz     :     0.008184
      dyz     :     0.007230
      dx2y2   :     0.010354
      dxy     :     0.009864
 17 C s       :     3.084543  s :     3.084543
      pz      :     0.898452  p :     2.670870
      px      :     0.875095
      py      :     0.897324
      dz2     :     0.007945  d :     0.064166
      dxz     :     0.015489
      dyz     :     0.006423
      dx2y2   :     0.016407
      dxy     :     0.017902
 18 N s       :     3.599647  s :     3.599647
      pz      :     1.288513  p :     3.758865
      px      :     1.099735
      py      :     1.370617
      dz2     :     0.005174  d :     0.031959
      dxz     :     0.007225
      dyz     :     0.004535
      dx2y2   :     0.006191
      dxy     :     0.008834
 19 H s       :     0.794548  s :     0.794548
      pz      :     0.012379  p :     0.049358
      px      :     0.026526
      py      :     0.010453
 20 H s       :     0.785536  s :     0.785536
      pz      :     0.026331  p :     0.045373
      px      :     0.006036
      py      :     0.013007
 21 H s       :     0.896937  s :     0.896937
      pz      :     0.008980  p :     0.025824
      px      :     0.004948
      py      :     0.011895
 22 H s       :     0.898073  s :     0.898073
      pz      :     0.006856  p :     0.024901
      px      :     0.002309
      py      :     0.015736
 23 H s       :     0.892489  s :     0.892489
      pz      :     0.017247  p :     0.025245
      px      :     0.003511
      py      :     0.004487
 24 H s       :     0.892792  s :     0.892792
      pz      :     0.010513  p :     0.025889
      px      :     0.008248
      py      :     0.007128
 25 H s       :     0.914503  s :     0.914503
      pz      :     0.007318  p :     0.025694
      px      :     0.011351
      py      :     0.007025
 26 H s       :     0.906721  s :     0.906721
      pz      :     0.015217  p :     0.025606
      px      :     0.004889
      py      :     0.005500
 27 H s       :     0.909955  s :     0.909955
      pz      :     0.004426  p :     0.025698
      px      :     0.015521
      py      :     0.005751
 28 H s       :     0.919439  s :     0.919439
      pz      :     0.007693  p :     0.026244
      px      :     0.009468
      py      :     0.009082
 29 H s       :     0.911827  s :     0.911827
      pz      :     0.008974  p :     0.025589
      px      :     0.004252
      py      :     0.012363
 30 H s       :     0.912087  s :     0.912087
      pz      :     0.003346  p :     0.025869
      px      :     0.018958
      py      :     0.003565
 31 H s       :     0.910609  s :     0.910609
      pz      :     0.008027  p :     0.024600
      px      :     0.008046
      py      :     0.008527


                     *******************************
                     * LOEWDIN POPULATION ANALYSIS *
                     *******************************

----------------------
LOEWDIN ATOMIC CHARGES
----------------------
   0 N :   -0.198316
   1 C :    0.070940
   2 N :    0.026218
   3 O :   -0.172364
   4 C :    0.131532
   5 C :    0.154683
   6 N :   -0.195140
   7 C :    0.058599
   8 C :   -0.037621
   9 C :   -0.016063
  10 C :   -0.014504
  11 N :   -0.093250
  12 O :   -0.093042
  13 C :    0.027607
  14 C :   -0.058093
  15 C :    0.038689
  16 C :   -0.057617
  17 C :    0.076126
  18 N :   -0.131191
  19 H :    0.061269
  20 H :    0.071056
  21 H :    0.039422
  22 H :    0.039422
  23 H :    0.034770
  24 H :    0.029832
  25 H :    0.023537
  26 H :    0.025348
  27 H :    0.023467
  28 H :    0.032240
  29 H :    0.037477
  30 H :    0.036109
  31 H :    0.028858

-------------------------------
LOEWDIN REDUCED ORBITAL CHARGES
-------------------------------
  0 N s       :     3.270816  s :     3.270816
      pz      :     1.192248  p :     3.879790
      px      :     1.468986
      py      :     1.218556
      dz2     :     0.009096  d :     0.047711
      dxz     :     0.009058
      dyz     :     0.012265
      dx2y2   :     0.011342
      dxy     :     0.005950
  1 C s       :     2.856078  s :     2.856078
      pz      :     0.955844  p :     2.878829
      px      :     0.991033
      py      :     0.931952
      dz2     :     0.044787  d :     0.194153
      dxz     :     0.048188
      dyz     :     0.025891
      dx2y2   :     0.031532
      dxy     :     0.043755
  2 N s       :     3.113721  s :     3.113721
      pz      :     1.280066  p :     3.777346
      px      :     1.030741
      py      :     1.466539
      dz2     :     0.016686  d :     0.082715
      dxz     :     0.020000
      dyz     :     0.006019
      dx2y2   :     0.013449
      dxy     :     0.026562
  3 O s       :     3.518711  s :     3.518711
      pz      :     1.619454  p :     4.617803
      px      :     1.287067
      py      :     1.711282
      dz2     :     0.007571  d :     0.035850
      dxz     :     0.007767
      dyz     :     0.003341
      dx2y2   :     0.005915
      dxy     :     0.011256
  4 C s       :     2.837548  s :     2.837548
      pz      :     0.890543  p :     2.883864
      px      :     0.917773
      py      :     1.075548
      dz2     :     0.025387  d :     0.147056
      dxz     :     0.041505
      dyz     :     0.032669
      dx2y2   :     0.028171
      dxy     :     0.019323
  5 C s       :     2.869165  s :     2.869165
      pz      :     0.825020  p :     2.762283
      px      :     1.066076
      py      :     0.871187
      dz2     :     0.016969  d :     0.213868
      dxz     :     0.028061
      dyz     :     0.037219
      dx2y2   :     0.079300
      dxy     :     0.052318
  6 N s       :     3.254896  s :     3.254896
      pz      :     1.242323  p :     3.875554
      px      :     1.143023
      py      :     1.490208
      dz2     :     0.007512  d :     0.064690
      dxz     :     0.008874
      dyz     :     0.009143
      dx2y2   :     0.010814
      dxy     :     0.028349
  7 C s       :     2.874026  s :     2.874026
      pz      :     0.880401  p :     2.886190
      px      :     1.018527
      py      :     0.987262
      dz2     :     0.018214  d :     0.181186
      dxz     :     0.021377
      dyz     :     0.030439
      dx2y2   :     0.054444
      dxy     :     0.056712
  8 C s       :     2.826204  s :     2.826204
      pz      :     1.031182  p :     3.100534
      px      :     0.965537
      py      :     1.103814
      dz2     :     0.026012  d :     0.110883
      dxz     :     0.026090
      dyz     :     0.016484
      dx2y2   :     0.025778
      dxy     :     0.016518
  9 C s       :     2.819918  s :     2.819918
      pz      :     1.067187  p :     3.094807
      px      :     1.061762
      py      :     0.965858
      dz2     :     0.009450  d :     0.101338
      dxz     :     0.018364
      dyz     :     0.026922
      dx2y2   :     0.019192
      dxy     :     0.027410
 10 C s       :     2.821439  s :     2.821439
      pz      :     1.028321  p :     3.091216
      px      :     1.029299
      py      :     1.033596
      dz2     :     0.019258  d :     0.101850
      dxz     :     0.023208
      dyz     :     0.017887
      dx2y2   :     0.023463
      dxy     :     0.018034
 11 N s       :     3.365476  s :     3.365476
      pz      :     1.305344  p :     3.642056
      px      :     0.873000
      py      :     1.463712
      dz2     :     0.009580  d :     0.085718
      dxz     :     0.017175
      dyz     :     0.008618
      dx2y2   :     0.031954
      dxy     :     0.018391
 12 O s       :     3.495403  s :     3.495403
      pz      :     1.639036  p :     4.554639
      px      :     1.424627
      py      :     1.490976
      dz2     :     0.005336  d :     0.043000
      dxz     :     0.006300
      dyz     :     0.006458
      dx2y2   :     0.017812
      dxy     :     0.007093
 13 C s       :     2.849955  s :     2.849955
      pz      :     0.967400  p :     2.972354
      px      :     1.006410
      py      :     0.998544
      dz2     :     0.023988  d :     0.150085
      dxz     :     0.026858
      dyz     :     0.024689
      dx2y2   :     0.042079
      dxy     :     0.032470
 14 C s       :     2.848659  s :     2.848659
      pz      :     1.024825  p :     3.112688
      px      :     1.054534
      py      :     1.033329
      dz2     :     0.011196  d :     0.096746
      dxz     :     0.019964
      dyz     :     0.014376
      dx2y2   :     0.025628
      dxy     :     0.025582
 15 C s       :     2.855719  s :     2.855719
      pz      :     0.953625  p :     3.005122
      px      :     1.068718
      py      :     0.982779
      dz2     :     0.011088  d :     0.100470
      dxz     :     0.023440
      dyz     :     0.012671
      dx2y2   :     0.026517
      dxy     :     0.026753
 16 C s       :     2.855445  s :     2.855445
      pz      :     1.024366  p :     3.105889
      px      :     1.045917
      py      :     1.035606
      dz2     :     0.013372  d :     0.096283
      dxz     :     0.017928
      dyz     :     0.016824
      dx2y2   :     0.025246
      dxy     :     0.022913
 17 C s       :     2.852805  s :     2.852805
      pz      :     0.956323  p :     2.933153
      px      :     0.991666
      py      :     0.985164
      dz2     :     0.015612  d :     0.137916
      dxz     :     0.033237
      dyz     :     0.013520
      dx2y2   :     0.035175
      dxy     :     0.040372
 18 N s       :     3.231277  s :     3.231277
      pz      :     1.290157  p :     3.841143
      px      :     1.177176
      py      :     1.373810
      dz2     :     0.007921  d :     0.058771
      dxz     :     0.014201
      dyz     :     0.006578
      dx2y2   :     0.013022
      dxy     :     0.017049
 19 H s       :     0.808044  s :     0.808044
      pz      :     0.030452  p :     0.130688
      px      :     0.073453
      py      :     0.026783
 20 H s       :     0.801225  s :     0.801225
      pz      :     0.066383  p :     0.127719
      px      :     0.020503
      py      :     0.040833
 21 H s       :     0.892969  s :     0.892969
      pz      :     0.023669  p :     0.067609
      px      :     0.014041
      py      :     0.029898
 22 H s       :     0.893318  s :     0.893318
      pz      :     0.019290  p :     0.067260
      px      :     0.009203
      py      :     0.038767
 23 H s       :     0.892907  s :     0.892907
      pz      :     0.041701  p :     0.072323
      px      :     0.013182
      py      :     0.017440
 24 H s       :     0.898961  s :     0.898961
      pz      :     0.028191  p :     0.071207
      px      :     0.022510
      py      :     0.020506
 25 H s       :     0.906618  s :     0.906618
      pz      :     0.020921  p :     0.069845
      px      :     0.028905
      py      :     0.020018
 26 H s       :     0.904523  s :     0.904523
      pz      :     0.037246  p :     0.070128
      px      :     0.015171
      py      :     0.017711
 27 H s       :     0.906369  s :     0.906369
      pz      :     0.014300  p :     0.070163
      px      :     0.037583
      py      :     0.018281
 28 H s       :     0.896367  s :     0.896367
      pz      :     0.021994  p :     0.071392
      px      :     0.025303
      py      :     0.024095
 29 H s       :     0.894745  s :     0.894745
      pz      :     0.023326  p :     0.067778
      px      :     0.013974
      py      :     0.030478
 30 H s       :     0.893734  s :     0.893734
      pz      :     0.012923  p :     0.070157
      px      :     0.043988
      py      :     0.013245
 31 H s       :     0.904567  s :     0.904567
      pz      :     0.021933  p :     0.066575
      px      :     0.021759
      py      :     0.022883


                      *****************************
                      * MAYER POPULATION ANALYSIS *
                      *****************************

  NA   - Mulliken gross atomic population
  ZA   - Total nuclear charge
  QA   - Mulliken gross atomic charge
  VA   - Mayer's total valence
  BVA  - Mayer's bonded valence
  FA   - Mayer's free valence

  ATOM       NA         ZA         QA         VA         BVA        FA
  0 N      7.2888     7.0000    -0.2888     3.0274     3.0274     0.0000
  1 C      5.7451     6.0000     0.2549     4.0434     4.0434     0.0000
  2 N      7.1433     7.0000    -0.1433     2.9420     2.9420    -0.0000
  3 O      8.4567     8.0000    -0.4567     1.7995     1.7995     0.0000
  4 C      5.5754     6.0000     0.4246     3.7684     3.7684    -0.0000
  5 C      5.7034     6.0000     0.2966     3.8240     3.8240    -0.0000
  6 N      7.3699     7.0000    -0.3699     2.9560     2.9560     0.0000
  7 C      5.8130     6.0000     0.1870     3.9368     3.9368     0.0000
  8 C      6.1576     6.0000    -0.1576     3.8239     3.8239     0.0000
  9 C      6.0312     6.0000    -0.0312     3.8532     3.8532    -0.0000
 10 C      6.0498     6.0000    -0.0498     3.8763     3.8763    -0.0000
 11 N      7.0802     7.0000    -0.0802     2.6773     2.6773     0.0000
 12 O      8.3934     8.0000    -0.3934     2.0667     2.0667    -0.0000
 13 C      5.9267     6.0000     0.0733     3.7967     3.7967    -0.0000
 14 C      6.0674     6.0000    -0.0674     3.8835     3.8835    -0.0000
 15 C      5.9520     6.0000     0.0480     3.9096     3.9096    -0.0000
 16 C      6.1147     6.0000    -0.1147     3.8782     3.8782     0.0000
 17 C      5.8196     6.0000     0.1804     3.9211     3.9211     0.0000
 18 N      7.3905     7.0000    -0.3905     3.0160     3.0160     0.0000
 19 H      0.8439     1.0000     0.1561     1.0097     1.0097     0.0000
 20 H      0.8309     1.0000     0.1691     0.9776     0.9776    -0.0000
 21 H      0.9228     1.0000     0.0772     1.0041     1.0041     0.0000
 22 H      0.9230     1.0000     0.0770     1.0075     1.0075    -0.0000
 23 H      0.9177     1.0000     0.0823     0.9847     0.9847     0.0000
 24 H      0.9187     1.0000     0.0813     0.9870     0.9870    -0.0000
 25 H      0.9402     1.0000     0.0598     0.9767     0.9767    -0.0000
 26 H      0.9323     1.0000     0.0677     0.9806     0.9806    -0.0000
 27 H      0.9357     1.0000     0.0643     0.9754     0.9754    -0.0000
 28 H      0.9457     1.0000     0.0543     0.9979     0.9979    -0.0000
 29 H      0.9374     1.0000     0.0626     0.9861     0.9861     0.0000
 30 H      0.9380     1.0000     0.0620     0.9881     0.9881     0.0000
 31 H      0.9352     1.0000     0.0648     0.9896     0.9896    -0.0000

  Mayer bond orders larger than 0.100000
B(  0-N ,  1-C ) :   2.0234 B(  0-N , 19-H ) :   0.9176 B(  1-C ,  2-N ) :   1.0513 
B(  1-C , 13-C ) :   0.9624 B(  2-N ,  3-O ) :   0.9422 B(  2-N , 20-H ) :   0.9313 
B(  3-O ,  4-C ) :   0.8476 B(  4-C ,  5-C ) :   0.9887 B(  4-C , 21-H ) :   0.9684 
B(  4-C , 22-H ) :   0.9763 B(  5-C ,  6-N ) :   1.6858 B(  5-C , 12-O ) :   1.0971 
B(  6-N ,  7-C ) :   1.2477 B(  7-C ,  8-C ) :   0.9600 B(  7-C , 11-N ) :   1.7202 
B(  8-C ,  9-C ) :   0.9572 B(  8-C , 10-C ) :   0.9584 B(  8-C , 23-H ) :   0.9610 
B(  9-C , 10-C ) :   0.9745 B(  9-C , 24-H ) :   0.9711 B(  9-C , 25-H ) :   0.9721 
B( 10-C , 26-H ) :   0.9740 B( 10-C , 27-H ) :   0.9762 B( 11-N , 12-O ) :   0.8909 
B( 13-C , 14-C ) :   1.4006 B( 13-C , 18-N ) :   1.4268 B( 14-C , 15-C ) :   1.4319 
B( 14-C , 28-H ) :   0.9829 B( 15-C , 16-C ) :   1.4434 B( 15-C , 29-H ) :   0.9906 
B( 16-C , 17-C ) :   1.3867 B( 16-C , 30-H ) :   0.9894 B( 17-C , 18-N ) :   1.4746 
B( 17-C , 31-H ) :   0.9981 

-------
TIMINGS
-------

Total SCF time: 0 days 0 hours 0 min 11 sec 

Total time                  ....      11.323 sec
Sum of individual times     ....      11.068 sec  ( 97.7%)

Fock matrix formation       ....      10.347 sec  ( 91.4%)
Diagonalization             ....       0.195 sec  (  1.7%)
Density matrix formation    ....       0.024 sec  (  0.2%)
Population analysis         ....       0.028 sec  (  0.2%)
Initial guess               ....       0.085 sec  (  0.7%)
Orbital Transformation      ....       0.000 sec  (  0.0%)
Orbital Orthonormalization  ....       0.000 sec  (  0.0%)
DIIS solution               ....       0.112 sec  (  1.0%)
SOSCF solution              ....       0.157 sec  (  1.4%)

Maximum memory used throughout the entire SCF-calculation: 234.3 MB

-------------------------   --------------------
FINAL SINGLE POINT ENERGY      -883.098796825629
-------------------------   --------------------


                            ***************************************
                            *     ORCA property calculations      *
                            ***************************************

                                    ---------------------
                                    Active property flags
                                    ---------------------
   (+) Dipole Moment


------------------------------------------------------------------------------
                       ORCA ELECTRIC PROPERTIES CALCULATION
------------------------------------------------------------------------------

Dipole Moment Calculation                       ... on
Quadrupole Moment Calculation                   ... off
Polarizability Calculation                      ... off
GBWName                                         ... ./ZINC000000000159/ZINC000000000159.gbw
Electron density                                ... ./ZINC000000000159/ZINC000000000159.scfp
The origin for moment calculation is the CENTER OF MASS  = (-0.301662,  0.040964 -0.140606)

-------------
DIPOLE MOMENT
-------------
                                X             Y             Z
Electronic contribution:     -7.63304       1.36813      -1.61650
Nuclear contribution   :      5.81257      -0.71347       1.23660
                        -----------------------------------------
Total Dipole Moment    :     -1.82046       0.65466      -0.37990
                        -----------------------------------------
Magnitude (a.u.)       :      1.97154
Magnitude (Debye)      :      5.01126



--------------------
Rotational spectrum 
--------------------
 
Rotational constants in cm-1:     0.059448     0.003771     0.003606 
Rotational constants in MHz :  1782.196244   113.040846   108.094081 

 Dipole components along the rotational axes: 
x,y,z [a.u.] :    -1.808091    -0.785992     0.000542 
x,y,z [Debye]:    -4.595803    -1.997834     0.001378 

 

Timings for individual modules:

Sum of individual times         ...       11.949 sec (=   0.199 min)
GTO integral calculation        ...        0.397 sec (=   0.007 min)   3.3 %
SCF iterations                  ...       11.552 sec (=   0.193 min)  96.7 %
                             ****ORCA TERMINATED NORMALLY****
TOTAL RUN TIME: 0 days 0 hours 0 minutes 12 seconds 286 msec
