
                                 *****************
                                 * O   R   C   A *
                                 *****************

                                            #,                                       
                                            ###                                      
                                            ####                                     
                                            #####                                    
                                            ######                                   
                                           ########,                                 
                                     ,,################,,,,,                         
                               ,,#################################,,                 
                          ,,##########################################,,             
                       ,#########################################, ''#####,          
                    ,#############################################,,   '####,        
                  ,##################################################,,,,####,       
                ,###########''''           ''''###############################       
              ,#####''   ,,,,##########,,,,          '''####'''          '####       
            ,##' ,,,,###########################,,,                        '##       
           ' ,,###''''                  '''############,,,                           
         ,,##''                                '''############,,,,        ,,,,,,###''
      ,#''                                            '''#######################'''  
     '                                                          ''''####''''         
             ,#######,   #######,   ,#######,      ##                                
            ,#'     '#,  ##    ##  ,#'     '#,    #''#        ######   ,####,        
            ##       ##  ##   ,#'  ##            #'  '#       #        #'  '#        
            ##       ##  #######   ##           ,######,      #####,   #    #        
            '#,     ,#'  ##    ##  '#,     ,#' ,#      #,         ##   #,  ,#        
             '#######'   ##     ##  '#######'  #'      '#     #####' # '####'        



                  #######################################################
                  #                        -***-                        #
                  #          Department of theory and spectroscopy      #
                  #    Directorship and core code : Frank Neese         #
                  #        Max Planck Institute fuer Kohlenforschung    #
                  #                Kaiser Wilhelm Platz 1               #
                  #                 D-45470 Muelheim/Ruhr               #
                  #                      Germany                        #
                  #                                                     #
                  #                  All rights reserved                #
                  #                        -***-                        #
                  #######################################################


                         Program Version 5.0.3 -  RELEASE  -


 With contributions from (in alphabetic order):
   Daniel Aravena         : Magnetic Suceptibility
   Michael Atanasov       : Ab Initio Ligand Field Theory (pilot matlab implementation)
   Alexander A. Auer      : GIAO ZORA, VPT2 properties, NMR spectrum
   Ute Becker             : Parallelization
   Giovanni Bistoni       : ED, misc. LED, open-shell LED, HFLD
   Martin Brehm           : Molecular dynamics
   Dmytro Bykov           : SCF Hessian
   Vijay G. Chilkuri      : MRCI spin determinant printing, contributions to CSF-ICE
   Dipayan Datta          : RHF DLPNO-CCSD density
   Achintya Kumar Dutta   : EOM-CC, STEOM-CC
   Dmitry Ganyushin       : Spin-Orbit,Spin-Spin,Magnetic field MRCI
   Miquel Garcia          : C-PCM and meta-GGA Hessian, CC/C-PCM, Gaussian charge scheme
   Yang Guo               : DLPNO-NEVPT2, F12-NEVPT2, CIM, IAO-localization
   Andreas Hansen         : Spin unrestricted coupled pair/coupled cluster methods
   Benjamin Helmich-Paris : MC-RPA, TRAH-SCF, COSX integrals
   Lee Huntington         : MR-EOM, pCC
   Robert Izsak           : Overlap fitted RIJCOSX, COSX-SCS-MP3, EOM
   Marcus Kettner         : VPT2
   Christian Kollmar      : KDIIS, OOCD, Brueckner-CCSD(T), CCSD density, CASPT2, CASPT2-K
   Simone Kossmann        : Meta GGA functionals, TD-DFT gradient, OOMP2, MP2 Hessian
   Martin Krupicka        : Initial AUTO-CI
   Lucas Lang             : DCDCAS
   Marvin Lechner         : AUTO-CI (C++ implementation), FIC-MRCC
   Dagmar Lenk            : GEPOL surface, SMD
   Dimitrios Liakos       : Extrapolation schemes; Compound Job, initial MDCI parallelization
   Dimitrios Manganas     : Further ROCIS development; embedding schemes
   Dimitrios Pantazis     : SARC Basis sets
   Anastasios Papadopoulos: AUTO-CI, single reference methods and gradients
   Taras Petrenko         : DFT Hessian,TD-DFT gradient, ASA, ECA, R-Raman, ABS, FL, XAS/XES, NRVS
   Peter Pinski           : DLPNO-MP2, DLPNO-MP2 Gradient
   Christoph Reimann      : Effective Core Potentials
   Marius Retegan         : Local ZFS, SOC
   Christoph Riplinger    : Optimizer, TS searches, QM/MM, DLPNO-CCSD(T), (RO)-DLPNO pert. Triples
   Tobias Risthaus        : Range-separated hybrids, TD-DFT gradient, RPA, STAB
   Michael Roemelt        : Original ROCIS implementation
   Masaaki Saitow         : Open-shell DLPNO-CCSD energy and density
   Barbara Sandhoefer     : DKH picture change effects
   Avijit Sen             : IP-ROCIS
   Kantharuban Sivalingam : CASSCF convergence, NEVPT2, FIC-MRCI
   Bernardo de Souza      : ESD, SOC TD-DFT
   Georgi Stoychev        : AutoAux, RI-MP2 NMR, DLPNO-MP2 response
   Willem Van den Heuvel  : Paramagnetic NMR
   Boris Wezisla          : Elementary symmetry handling
   Frank Wennmohs         : Technical directorship


 We gratefully acknowledge several colleagues who have allowed us to
 interface, adapt or use parts of their codes:
   Stefan Grimme, W. Hujo, H. Kruse, P. Pracht,  : VdW corrections, initial TS optimization,
                  C. Bannwarth, S. Ehlert          DFT functionals, gCP, sTDA/sTD-DF
   Ed Valeev, F. Pavosevic, A. Kumar             : LibInt (2-el integral package), F12 methods
   Garnet Chan, S. Sharma, J. Yang, R. Olivares  : DMRG
   Ulf Ekstrom                                   : XCFun DFT Library
   Mihaly Kallay                                 : mrcc  (arbitrary order and MRCC methods)
   Jiri Pittner, Ondrej Demel                    : Mk-CCSD
   Frank Weinhold                                : gennbo (NPA and NBO analysis)
   Christopher J. Cramer and Donald G. Truhlar   : smd solvation model
   Lars Goerigk                                  : TD-DFT with DH, B97 family of functionals
   V. Asgeirsson, H. Jonsson                     : NEB implementation
   FAccTs GmbH                                   : IRC, NEB, NEB-TS, DLPNO-Multilevel, CI-OPT
                                                   MM, QMMM, 2- and 3-layer-ONIOM, Crystal-QMMM,
                                                   LR-CPCM, SF, NACMEs, symmetry and pop. for TD-DFT,
                                                   nearIR, NL-DFT gradient (VV10), updates on ESD,
                                                   ML-optimized integration grids
   S Lehtola, MJT Oliveira, MAL Marques          : LibXC Library
   Liviu Ungur et al                             : ANISO software


 Your calculation uses the libint2 library for the computation of 2-el integrals
 For citations please refer to: http://libint.valeyev.net

 Your ORCA version has been built with support for libXC version: 5.1.0
 For citations please refer to: https://tddft.org/programs/libxc/

 This ORCA versions uses:
   CBLAS   interface :  Fast vector & matrix operations
   LAPACKE interface :  Fast linear algebra routines
   SCALAPACK package :  Parallel linear algebra routines
   Shared memory     :  Shared parallel matrices
   BLAS/LAPACK       :  OpenBLAS 0.3.15  USE64BITINT DYNAMIC_ARCH NO_AFFINITY Zen SINGLE_THREADED
        Core in use  :  Zen
   Copyright (c) 2011-2014, The OpenBLAS Project


================================================================================

----- Orbital basis set information -----
Your calculation utilizes the basis: def2-SVP
   F. Weigend and R. Ahlrichs, Phys. Chem. Chem. Phys. 7, 3297 (2005).

================================================================================
                                        WARNINGS
                       Please study these warnings very carefully!
================================================================================


INFO   : the flag for use of the SHARK integral package has been found!

================================================================================
                                       INPUT FILE
================================================================================
NAME = ./ZINC000000000011/ZINC000000000011.inp
|  1> !RHF def2-SVP TightSCF PAL16 
|  2> *xyz 0 1
|  3> C -2.4446380582202956 2.1257441885706245 2.736748633639922
|  4> O -2.802230340774584 1.2986493751019295 1.6394467085396727
|  5> C -1.8296051703696878 0.5044577265716612 1.0794182651014106
|  6> C -0.5160932000197338 0.43639285265116123 1.5657656608718227
|  7> C 0.4305072823903103 -0.4140271479455846 0.9775793276916659
|  8> C 1.8447988696838293 -0.4828071391357115 1.5104026884863018
|  9> C 2.8629130990411635 0.137853993672998 0.5996046438629329
| 10> C 2.9685538378015632 1.5098213916460286 0.48604086480567826
| 11> N 3.8391774046165956 2.1345910056856368 -0.3261979092568471
| 12> C 4.6252815418970945 1.3470393083725312 -1.0586571550681358
| 13> N 5.508358050171255 1.9599483699731646 -1.9243004434100504
| 14> N 4.592978115278893 0.012523603604320905 -1.0496959312019436
| 15> C 3.72477021518668 -0.5738412374829363 -0.21331334081704098
| 16> N 3.7325816446801348 -1.969753791397597 -0.24342830088837186
| 17> C 0.052086622663839156 -1.2057127869042463 -0.11401381669785231
| 18> C -1.247851355470688 -1.1454145237798454 -0.6267362601788112
| 19> O -1.6792279294611951 -1.9084888742104655 -1.688643480313065
| 20> C -0.681228822814603 -2.467497164153059 -2.530312866053501
| 21> C -2.212709775390295 -0.2874968968067914 -0.03535189548031605
| 22> N -3.5224514697914144 -0.2762492857231495 -0.5950977487554612
| 23> C -4.476686338143833 -0.9887570217843201 0.24905357799928937
| 24> C -3.9597928386572163 1.0363561665862078 -1.0586813029507365
| 25> H -1.6701324323305908 2.846180119740902 2.4538864739341237
| 26> H -2.1352543063457707 1.5259408118447444 3.5988620167917755
| 27> H -3.3330791848126173 2.6932092364355826 3.030231728532868
| 28> H -0.20691922640188554 1.035381095942313 2.4159194894537004
| 29> H 1.9026009640875894 0.016479700396152368 2.487289442343167
| 30> H 2.084890466464165 -1.5305856948314869 1.7284203142127332
| 31> H 2.3299117720783986 2.175604207968851 1.060263332663309
| 32> H 5.164127036419303 2.8829752918122686 -2.1496923552506644
| 33> H 5.704645795026342 1.3401868850439234 -2.6974112173431197
| 34> H 4.465721229544301 -2.2397006296113444 -0.8971565526098212
| 35> H 3.9095939517628993 -2.362126168888144 0.6744298871557161
| 36> H 0.7909265735389486 -1.87292948843288 -0.5485148264768537
| 37> H -1.179865843868118 -2.871079390666082 -3.416904473546272
| 38> H -0.1711880142089318 -3.297647436286149 -2.0314696475194536
| 39> H 0.03333228638407866 -1.7090257574530352 -2.8678402785102164
| 40> H -4.684565932819564 -0.45697149591704456 1.1838698268329118
| 41> H -4.117967494013884 -1.9965197623627038 0.4888659339513616
| 42> H -5.425707694415226 -1.105715280974798 -0.28595570658056346
| 43> H -3.1648179161456613 1.5520220055803848 -1.6096410998997221
| 44> H -4.307023604475514 1.680426237562247 -0.24476021025044714
| 45> H -4.798719809766675 0.910563399984491 -1.7523219978112734
| 46> *
| 47> 
| 48>                          ****END OF INPUT****
================================================================================

                       ****************************
                       * Single Point Calculation *
                       ****************************

---------------------------------
CARTESIAN COORDINATES (ANGSTROEM)
---------------------------------
  C     -2.444638    2.125744    2.736749
  O     -2.802230    1.298649    1.639447
  C     -1.829605    0.504458    1.079418
  C     -0.516093    0.436393    1.565766
  C      0.430507   -0.414027    0.977579
  C      1.844799   -0.482807    1.510403
  C      2.862913    0.137854    0.599605
  C      2.968554    1.509821    0.486041
  N      3.839177    2.134591   -0.326198
  C      4.625282    1.347039   -1.058657
  N      5.508358    1.959948   -1.924300
  N      4.592978    0.012524   -1.049696
  C      3.724770   -0.573841   -0.213313
  N      3.732582   -1.969754   -0.243428
  C      0.052087   -1.205713   -0.114014
  C     -1.247851   -1.145415   -0.626736
  O     -1.679228   -1.908489   -1.688643
  C     -0.681229   -2.467497   -2.530313
  C     -2.212710   -0.287497   -0.035352
  N     -3.522451   -0.276249   -0.595098
  C     -4.476686   -0.988757    0.249054
  C     -3.959793    1.036356   -1.058681
  H     -1.670132    2.846180    2.453886
  H     -2.135254    1.525941    3.598862
  H     -3.333079    2.693209    3.030232
  H     -0.206919    1.035381    2.415919
  H      1.902601    0.016480    2.487289
  H      2.084890   -1.530586    1.728420
  H      2.329912    2.175604    1.060263
  H      5.164127    2.882975   -2.149692
  H      5.704646    1.340187   -2.697411
  H      4.465721   -2.239701   -0.897157
  H      3.909594   -2.362126    0.674430
  H      0.790927   -1.872929   -0.548515
  H     -1.179866   -2.871079   -3.416904
  H     -0.171188   -3.297647   -2.031470
  H      0.033332   -1.709026   -2.867840
  H     -4.684566   -0.456971    1.183870
  H     -4.117967   -1.996520    0.488866
  H     -5.425708   -1.105715   -0.285956
  H     -3.164818    1.552022   -1.609641
  H     -4.307024    1.680426   -0.244760
  H     -4.798720    0.910563   -1.752322

----------------------------
CARTESIAN COORDINATES (A.U.)
----------------------------
  NO LB      ZA    FRAG     MASS         X           Y           Z
   0 C     6.0000    0    12.011   -4.619696    4.017074    5.171705
   1 O     8.0000    0    15.999   -5.295448    2.454092    3.098105
   2 C     6.0000    0    12.011   -3.457453    0.953287    2.039805
   3 C     6.0000    0    12.011   -0.975275    0.824663    2.958868
   4 C     6.0000    0    12.011    0.813541   -0.782398    1.847357
   5 C     6.0000    0    12.011    3.486165   -0.912373    2.854247
   6 C     6.0000    0    12.011    5.410122    0.260506    1.133089
   7 C     6.0000    0    12.011    5.609754    2.853149    0.918484
   8 N     7.0000    0    14.007    7.254994    4.033792   -0.616425
   9 C     6.0000    0    12.011    8.740515    2.545535   -2.000572
  10 N     7.0000    0    14.007   10.409288    3.703766   -3.636401
  11 N     7.0000    0    14.007    8.679471    0.023666   -1.983638
  12 C     6.0000    0    12.011    7.038796   -1.084403   -0.403104
  13 N     7.0000    0    14.007    7.053557   -3.722295   -0.460013
  14 C     6.0000    0    12.011    0.098429   -2.278467   -0.215455
  15 C     6.0000    0    12.011   -2.358097   -2.164520   -1.184360
  16 O     8.0000    0    15.999   -3.173281   -3.606521   -3.191074
  17 C     6.0000    0    12.011   -1.287336   -4.662894   -4.781598
  18 C     6.0000    0    12.011   -4.181415   -0.543290   -0.066805
  19 N     7.0000    0    14.007   -6.656469   -0.522035   -1.124572
  20 C     6.0000    0    12.011   -8.459711   -1.868480    0.470643
  21 C     6.0000    0    12.011   -7.482924    1.958429   -2.000618
  22 H     1.0000    0     1.008   -3.156093    5.378501    4.637173
  23 H     1.0000    0     1.008   -4.035046    2.883610    6.800864
  24 H     1.0000    0     1.008   -6.298607    5.089428    5.726308
  25 H     1.0000    0     1.008   -0.391021    1.956587    4.565426
  26 H     1.0000    0     1.008    3.595395    0.031142    4.700296
  27 H     1.0000    0     1.008    3.939872   -2.892388    3.266241
  28 H     1.0000    0     1.008    4.402895    4.111296    2.003607
  29 H     1.0000    0     1.008    9.758786    5.448034   -4.062330
  30 H     1.0000    0     1.008   10.780218    2.532586   -5.097368
  31 H     1.0000    0     1.008    8.438990   -4.232421   -1.695380
  32 H     1.0000    0     1.008    7.388062   -4.463772    1.274488
  33 H     1.0000    0     1.008    1.494635   -3.539324   -1.036543
  34 H     1.0000    0     1.008   -2.229623   -5.425554   -6.457014
  35 H     1.0000    0     1.008   -0.323498   -6.231651   -3.838921
  36 H     1.0000    0     1.008    0.062989   -3.229591   -5.419433
  37 H     1.0000    0     1.008   -8.852547   -0.863551    2.237190
  38 H     1.0000    0     1.008   -7.781831   -3.772876    0.923823
  39 H     1.0000    0     1.008  -10.253102   -2.089499   -0.540378
  40 H     1.0000    0     1.008   -5.980639    2.932897   -3.041781
  41 H     1.0000    0     1.008   -8.139095    3.175545   -0.462530
  42 H     1.0000    0     1.008   -9.068266    1.720715   -3.311409

--------------------------------
INTERNAL COORDINATES (ANGSTROEM)
--------------------------------
 C      0   0   0     0.000000000000     0.00000000     0.00000000
 O      1   0   0     1.419869566488     0.00000000     0.00000000
 C      2   1   0     1.374907980252   118.23597098     0.00000000
 C      3   2   1     1.402312487532   123.32486321     2.25714662
 C      4   3   2     1.401866546164   121.09190939   178.47426725
 C      5   4   3     1.512895275584   120.73339367   180.10692781
 C      6   5   4     1.500443235810   113.68621751   250.97188623
 C      7   6   5     1.380706789547   120.85571536    74.60840934
 N      8   7   6     1.344639093516   124.11946190   181.23353997
 C      9   8   7     1.332176391235   116.07267526     0.51756409
 N     10   9   8     1.380152143754   117.37946198   178.57056007
 N     10   9   8     1.334936695569   124.96110033     0.84561889
 C     12  10   9     1.340576190354   117.20140009   358.23039945
 N     13  12  10     1.396259212119   114.84780637   180.03438442
 C      5   4   3     1.400551298425   119.17511279     0.03428041
 C     15   5   4     1.398699013935   120.82738736     0.65528058
 O     16  15   5     1.376958662069   123.36492919   180.62675859
 C     17  16  15     1.420175989089   117.06700706   340.97434594
 C      3   2   1     1.420096396306   116.81020271   181.39683271
 N     19   3   2     1.424382404787   123.51400343     1.03547070
 C     20  19   3     1.459733852587   111.71460492   285.70593373
 C     20  19   3     1.459147099532   114.05137537    58.62103842
 H      1   2   3     1.094941960494   111.20918170    61.11836814
 H      1   2   3     1.094861581235   111.13559010   296.46459956
 H      1   2   3     1.094292713563   107.75013464   178.81372013
 H      4   3   2     1.084959443397   120.78926041   359.06194513
 H      6   5   4     1.098606462801   109.97991647    12.75753383
 H      6   5   4     1.096820660704   108.54600157   126.20689014
 H      8   7   6     1.086674693372   121.35718716     0.84472992
 H     11  10   9     1.010581616294   109.12038927   336.42486455
 H     11  10   9     1.010115560594   109.38464649   207.11728209
 H     14  13  12     1.018688163009   106.42716603     2.72553848
 H     14  13  12     1.013781580438   111.61645659   123.55319547
 H     15   5   4     1.086210719569   118.37293238   181.07263786
 H     18  17  16     1.094331837606   107.76473186   190.76598484
 H     18  17  16     1.094593832178   110.84734693    73.30360731
 H     18  17  16     1.095354375406   111.62269890   308.74947946
 H     21  20  19     1.095395449364   112.37151290    69.71469761
 H     21  20  19     1.096254950502   111.18035289   307.53582189
 H     21  20  19     1.095698728501   109.62902885   189.45006321
 H     22  20  19     1.096108152867   111.43957966    43.68952749
 H     22  20  19     1.094469280611   112.84237560   280.54980383
 H     22  20  19     1.095791812595   109.10553291   161.52793783

---------------------------
INTERNAL COORDINATES (A.U.)
---------------------------
 C      0   0   0     0.000000000000     0.00000000     0.00000000
 O      1   0   0     2.683164626551     0.00000000     0.00000000
 C      2   1   0     2.598199542019   118.23597098     0.00000000
 C      3   2   1     2.649986555613   123.32486321     2.25714662
 C      4   3   2     2.649143848556   121.09190939   178.47426725
 C      5   4   3     2.858957740158   120.73339367   180.10692781
 C      6   5   4     2.835426795176   113.68621751   250.97188623
 C      7   6   5     2.609157703489   120.85571536    74.60840934
 N      8   7   6     2.540999635709   124.11946190   181.23353997
 C      9   8   7     2.517448541510   116.07267526     0.51756409
 N     10   9   8     2.608109574840   117.37946198   178.57056007
 N     10   9   8     2.522664760748   124.96110033     0.84561889
 C     12  10   9     2.533321861425   117.20140009   358.23039945
 N     13  12  10     2.638547522870   114.84780637   180.03438442
 C      5   4   3     2.646658390531   119.17511279     0.03428041
 C     15   5   4     2.643158080122   120.82738736     0.65528058
 O     16  15   5     2.602074769041   123.36492919   180.62675859
 C     17  16  15     2.683743681349   117.06700706   340.97434594
 C      3   2   1     2.683593272787   116.81020271   181.39683271
 N     19   3   2     2.691692655023   123.51400343     1.03547070
 C     20  19   3     2.758497209803   111.71460492   285.70593373
 C     20  19   3     2.757388407222   114.05137537    58.62103842
 H      1   2   3     2.069140437872   111.20918170    61.11836814
 H      1   2   3     2.068988543087   111.13559010   296.46459956
 H      1   2   3     2.067913538980   107.75013464   178.81372013
 H      4   3   2     2.050276214432   120.78926041   359.06194513
 H      6   5   4     2.076065343650   109.97991647    12.75753383
 H      6   5   4     2.072690666758   108.54600157   126.20689014
 H      8   7   6     2.053517567135   121.35718716     0.84472992
 H     11  10   9     1.909722490771   109.12038927   336.42486455
 H     11  10   9     1.908841773134   109.38464649   207.11728209
 H     14  13  12     1.925041643955   106.42716603     2.72553848
 H     14  13  12     1.915769546642   111.61645659   123.55319547
 H     15   5   4     2.052640783715   118.37293238   181.07263786
 H     18  17  16     2.067987472707   107.76473186   190.76598484
 H     18  17  16     2.068482570697   110.84734693    73.30360731
 H     18  17  16     2.069919789109   111.62269890   308.74947946
 H     21  20  19     2.069997407642   112.37151290    69.71469761
 H     21  20  19     2.071621629403   111.18035289   307.53582189
 H     21  20  19     2.070570522153   109.62902885   189.45006321
 H     22  20  19     2.071344222077   111.43957966    43.68952749
 H     22  20  19     2.068247202344   112.84237560   280.54980383
 H     22  20  19     2.070746425598   109.10553291   161.52793783

---------------------
BASIS SET INFORMATION
---------------------
There are 4 groups of distinct atoms

 Group   1 Type C   : 7s4p1d contracted to 3s2p1d pattern {511/31/1}
 Group   2 Type O   : 7s4p1d contracted to 3s2p1d pattern {511/31/1}
 Group   3 Type N   : 7s4p1d contracted to 3s2p1d pattern {511/31/1}
 Group   4 Type H   : 4s1p contracted to 2s1p pattern {31/1}

Atom   0C    basis set group =>   1
Atom   1O    basis set group =>   2
Atom   2C    basis set group =>   1
Atom   3C    basis set group =>   1
Atom   4C    basis set group =>   1
Atom   5C    basis set group =>   1
Atom   6C    basis set group =>   1
Atom   7C    basis set group =>   1
Atom   8N    basis set group =>   3
Atom   9C    basis set group =>   1
Atom  10N    basis set group =>   3
Atom  11N    basis set group =>   3
Atom  12C    basis set group =>   1
Atom  13N    basis set group =>   3
Atom  14C    basis set group =>   1
Atom  15C    basis set group =>   1
Atom  16O    basis set group =>   2
Atom  17C    basis set group =>   1
Atom  18C    basis set group =>   1
Atom  19N    basis set group =>   3
Atom  20C    basis set group =>   1
Atom  21C    basis set group =>   1
Atom  22H    basis set group =>   4
Atom  23H    basis set group =>   4
Atom  24H    basis set group =>   4
Atom  25H    basis set group =>   4
Atom  26H    basis set group =>   4
Atom  27H    basis set group =>   4
Atom  28H    basis set group =>   4
Atom  29H    basis set group =>   4
Atom  30H    basis set group =>   4
Atom  31H    basis set group =>   4
Atom  32H    basis set group =>   4
Atom  33H    basis set group =>   4
Atom  34H    basis set group =>   4
Atom  35H    basis set group =>   4
Atom  36H    basis set group =>   4
Atom  37H    basis set group =>   4
Atom  38H    basis set group =>   4
Atom  39H    basis set group =>   4
Atom  40H    basis set group =>   4
Atom  41H    basis set group =>   4
Atom  42H    basis set group =>   4


           ************************************************************
           *        Program running with 16 parallel MPI-processes    *
           *              working on a common directory               *
           ************************************************************
------------------------------------------------------------------------------
                           ORCA GTO INTEGRAL CALCULATION
------------------------------------------------------------------------------
------------------------------------------------------------------------------
                   ___                                                        
                  /   \      - P O W E R E D   B Y -                         
                 /     \                                                     
                 |  |  |   _    _      __       _____    __    __             
                 |  |  |  | |  | |    /  \     |  _  \  |  |  /  |          
                  \  \/   | |  | |   /    \    | | | |  |  | /  /          
                 / \  \   | |__| |  /  /\  \   | |_| |  |  |/  /          
                |  |  |   |  __  | /  /__\  \  |    /   |      \           
                |  |  |   | |  | | |   __   |  |    \   |  |\   \          
                \     /   | |  | | |  |  |  |  | |\  \  |  | \   \       
                 \___/    |_|  |_| |__|  |__|  |_| \__\ |__|  \__/        
                                                                              
                      - O R C A' S   B I G   F R I E N D -                    
                                      &                                       
                       - I N T E G R A L  F E E D E R -                       
                                                                              
 v1 FN, 2020, v2 2021                                                         
------------------------------------------------------------------------------


Reading SHARK input file ./ZINC000000000011/ZINC000000000011.SHARKINP.tmp ... ok
----------------------
SHARK INTEGRAL PACKAGE
----------------------

Number of atoms                             ...     43
Number of basis functions                   ...    413
Number of shells                            ...    195
Maximum angular momentum                    ...      2
Integral batch strategy                     ... SHARK/LIBINT Hybrid
RI-J (if used) integral strategy            ... SPLIT-RIJ (Revised 2003 algorithm where possible)
Printlevel                                  ...      1
Contraction scheme used                     ... SEGMENTED contraction
Coulomb Range Separation                    ... NOT USED
Exchange Range Separation                   ... NOT USED
Finite Nucleus Model                        ... NOT USED
Auxiliary Coulomb fitting basis             ... NOT available
Auxiliary J/K fitting basis                 ... NOT available
Auxiliary Correlation fitting basis         ... NOT available
Auxiliary 'external' fitting basis          ... NOT available
Integral threshold                          ...     2.500000e-11
Primitive cut-off                           ...     2.500000e-12
Primitive pair pre-selection threshold      ...     2.500000e-12

Calculating pre-screening integrals         ... done (  0.0 sec) Dimension = 195
Organizing shell pair data                  ... done (  0.1 sec)
Shell pair information
Total number of shell pairs                 ...     19110
Shell pairs after pre-screening             ...     13547
Total number of primitive shell pairs       ...     68614
Primitive shell pairs kept                  ...     30875
          la=0 lb=0:   4334 shell pairs
          la=1 lb=0:   5066 shell pairs
          la=1 lb=1:   1515 shell pairs
          la=2 lb=0:   1583 shell pairs
          la=2 lb=1:    905 shell pairs
          la=2 lb=2:    144 shell pairs

Calculating one electron integrals          ... done (  0.0 sec)
Calculating Nuclear repulsion               ... done (  0.0 sec) ENN=   1819.008661996526 Eh

SHARK setup successfully completed in   0.2 seconds

Maximum memory used throughout the entire GTOINT-calculation: 20.3 MB


           ************************************************************
           *        Program running with 16 parallel MPI-processes    *
           *              working on a common directory               *
           ************************************************************
-------------------------------------------------------------------------------
                                 ORCA SCF
-------------------------------------------------------------------------------

------------
SCF SETTINGS
------------
Hamiltonian:
 Ab initio Hamiltonian  Method          .... Hartree-Fock(GTOs)


General Settings:
 Integral files         IntName         .... ./ZINC000000000011/ZINC000000000011
 Hartree-Fock type      HFTyp           .... RHF
 Total Charge           Charge          ....    0
 Multiplicity           Mult            ....    1
 Number of Electrons    NEL             ....  162
 Basis Dimension        Dim             ....  413
 Nuclear Repulsion      ENuc            ....   1819.0086619965 Eh

Convergence Acceleration:
 DIIS                   CNVDIIS         .... on
   Start iteration      DIISMaxIt       ....    12
   Startup error        DIISStart       ....  0.200000
   # of expansion vecs  DIISMaxEq       ....     5
   Bias factor          DIISBfac        ....   1.050
   Max. coefficient     DIISMaxC        ....  10.000
 Trust-Rad. Augm. Hess. CNVTRAH         .... auto
   Auto Start mean grad. ratio tolernc. ....  1.125000
   Auto Start start iteration           ....    20
   Auto Start num. interpolation iter.  ....    10
   Max. Number of Micro iterations      ....    16
   Max. Number of Macro iterations      .... Maxiter - #DIIS iter
   Number of Davidson start vectors     ....     2
   Converg. threshold I  (grad. norm)   ....   1.000e-05
   Converg. threshold II (energy diff.) ....   1.000e-08
   Grad. Scal. Fac. for Micro threshold ....   0.100
   Minimum threshold for Micro iter.    ....   0.010
   NR start threshold (gradient norm)   ....   0.001
   Initial trust radius                 ....   0.400
   Minimum AH scaling param. (alpha)    ....   1.000
   Maximum AH scaling param. (alpha)    .... 1000.000
   Orbital update algorithm             .... Taylor
   White noise on init. David. guess    .... on
   Maximum white noise                  ....   0.010
   Quad. conv. algorithm                .... NR
 SOSCF                  CNVSOSCF        .... on
   Start iteration      SOSCFMaxIt      ....   150
   Startup grad/error   SOSCFStart      ....  0.003300
 Level Shifting         CNVShift        .... on
   Level shift para.    LevelShift      ....    0.2500
   Turn off err/grad.   ShiftErr        ....    0.0010
 Zerner damping         CNVZerner       .... off
 Static damping         CNVDamp         .... on
   Fraction old density DampFac         ....    0.7000
   Max. Damping (<1)    DampMax         ....    0.9800
   Min. Damping (>=0)   DampMin         ....    0.0000
   Turn off err/grad.   DampErr         ....    0.1000
 Fernandez-Rico         CNVRico         .... off

SCF Procedure:
 Maximum # iterations   MaxIter         ....   125
 SCF integral mode      SCFMode         .... Direct
   Integral package                     .... SHARK and LIBINT hybrid scheme
 Reset frequency        DirectResetFreq ....    20
 Integral Threshold     Thresh          ....  2.500e-11 Eh
 Primitive CutOff       TCut            ....  2.500e-12 Eh

Convergence Tolerance:
 Convergence Check Mode ConvCheckMode   .... Total+1el-Energy
 Convergence forced     ConvForced      .... 0
 Energy Change          TolE            ....  1.000e-08 Eh
 1-El. energy change                    ....  1.000e-05 Eh
 Orbital Gradient       TolG            ....  1.000e-05
 Orbital Rotation angle TolX            ....  1.000e-05
 DIIS Error             TolErr          ....  5.000e-07


Diagonalization of the overlap matrix:
Smallest eigenvalue                        ... 1.486e-04
Time for diagonalization                   ...    0.022 sec
Threshold for overlap eigenvalues          ... 1.000e-08
Number of eigenvalues below threshold      ... 0
Time for construction of square roots      ...    0.017 sec
Total time needed                          ...    0.040 sec

Time for model grid setup =    0.178 sec

------------------------------
INITIAL GUESS: MODEL POTENTIAL
------------------------------
Loading Hartree-Fock densities                     ... done
Calculating cut-offs                               ... done
Initializing the effective Hamiltonian             ... done
Setting up the integral package (SHARK)            ... done
Starting the Coulomb interaction                   ... done (   0.1 sec)
Reading the grid                                   ... done
Mapping shells                                     ... done
Starting the XC term evaluation                    ... done (   0.0 sec)
Transforming the Hamiltonian                       ... done (   0.0 sec)
Diagonalizing the Hamiltonian                      ... done (   0.0 sec)
Back transforming the eigenvectors                 ... done (   0.0 sec)
Now organizing SCF variables                       ... done
                      ------------------
                      INITIAL GUESS DONE (   0.3 sec)
                      ------------------
--------------
SCF ITERATIONS
--------------
ITER       Energy         Delta-E        Max-DP      RMS-DP      [F,P]     Damp
               ***  Starting incremental Fock matrix formation  ***
  0  -1000.6877087630   0.000000000000 0.07739283  0.00173267  0.2309162 0.7000
  1  -1000.9432892476  -0.255580484593 0.06015019  0.00133717  0.1476064 0.7000
                               ***Turning on DIIS***
  2  -1001.1031672611  -0.159878013593 0.14561974  0.00309184  0.0874634 0.0000
  3  -1000.1748503939   0.928316867247 0.03327746  0.00062444  0.0384688 0.0000
  4  -1001.4494851792  -1.274634785299 0.01014478  0.00023418  0.0050880 0.0000
                      *** Initiating the SOSCF procedure ***
                           *** Shutting down DIIS ***
                      *** Re-Reading the Fockian *** 
                      *** Removing any level shift *** 
ITER      Energy       Delta-E        Grad      Rot      Max-DP    RMS-DP
  5  -1001.42293927   0.0265459070  0.001960  0.001960  0.003540  0.000092
               *** Restarting incremental Fock matrix formation ***
  6  -1001.44190650  -0.0189672324  0.000881  0.001573  0.001514  0.000043
  7  -1001.44196618  -0.0000596761  0.000446  0.001548  0.001057  0.000034
  8  -1001.44198102  -0.0000148384  0.000154  0.000308  0.000304  0.000007
  9  -1001.44198234  -0.0000013232  0.000047  0.000091  0.000089  0.000002
 10  -1001.44198254  -0.0000001942  0.000028  0.000112  0.000080  0.000001
 11  -1001.44198259  -0.0000000514  0.000007  0.000040  0.000023  0.000001
 12  -1001.44198259  -0.0000000032  0.000004  0.000012  0.000008  0.000000
                  ***Gradient check signals convergence***
              ***Rediagonalizing the Fockian in SOSCF/NRSCF***

               *****************************************************
               *                     SUCCESS                       *
               *           SCF CONVERGED AFTER  13 CYCLES          *
               *****************************************************


----------------
TOTAL SCF ENERGY
----------------

Total Energy       :        -1001.44198259 Eh          -27250.62174 eV

Components:
Nuclear Repulsion  :         1819.00866200 Eh           49497.74211 eV
Electronic Energy  :        -2820.45064459 Eh          -76748.36385 eV
One Electron Energy:        -4980.59951998 Eh         -135529.00310 eV
Two Electron Energy:         2160.14887539 Eh           58780.63925 eV

Virial components:
Potential Energy   :        -1998.04204545 Eh          -54369.48815 eV
Kinetic Energy     :          996.60006285 Eh           27118.86641 eV
Virial Ratio       :            2.00485844


---------------
SCF CONVERGENCE
---------------

  Last Energy change         ...    3.2560e-10  Tolerance :   1.0000e-08
  Last MAX-Density change    ...    3.1208e-06  Tolerance :   1.0000e-07
  Last RMS-Density change    ...    8.6534e-08  Tolerance :   5.0000e-09
  Last Orbital Gradient      ...    9.5277e-07  Tolerance :   1.0000e-05
  Last Orbital Rotation      ...    2.4431e-06  Tolerance :   1.0000e-05

             **** THE GBW FILE WAS UPDATED (./ZINC000000000011/ZINC000000000011.gbw) ****
             **** DENSITY ./ZINC000000000011/ZINC000000000011.scfp WAS UPDATED ****
             **** ENERGY FILE WAS UPDATED (./ZINC000000000011/ZINC000000000011.en.tmp) ****
             **** THE GBW FILE WAS UPDATED (./ZINC000000000011/ZINC000000000011.gbw) ****
             **** DENSITY ./ZINC000000000011/ZINC000000000011.scfp WAS UPDATED ****
----------------
ORBITAL ENERGIES
----------------

  NO   OCC          E(Eh)            E(eV) 
   0   2.0000     -20.579615      -559.9998 
   1   2.0000     -20.564000      -559.5749 
   2   2.0000     -15.577524      -423.8860 
   3   2.0000     -15.566433      -423.5842 
   4   2.0000     -15.549452      -423.1221 
   5   2.0000     -15.545561      -423.0162 
   6   2.0000     -15.528023      -422.5390 
   7   2.0000     -11.344320      -308.6946 
   8   2.0000     -11.330034      -308.3059 
   9   2.0000     -11.304326      -307.6063 
  10   2.0000     -11.298100      -307.4369 
  11   2.0000     -11.295362      -307.3624 
  12   2.0000     -11.294922      -307.3505 
  13   2.0000     -11.281981      -306.9983 
  14   2.0000     -11.250381      -306.1384 
  15   2.0000     -11.249719      -306.1204 
  16   2.0000     -11.248360      -306.0834 
  17   2.0000     -11.232406      -305.6493 
  18   2.0000     -11.231664      -305.6291 
  19   2.0000     -11.231179      -305.6159 
  20   2.0000     -11.227215      -305.5081 
  21   2.0000     -11.220046      -305.3130 
  22   2.0000      -1.390647       -37.8414 
  23   2.0000      -1.374970       -37.4148 
  24   2.0000      -1.320994       -35.9461 
  25   2.0000      -1.237532       -33.6750 
  26   2.0000      -1.203983       -32.7620 
  27   2.0000      -1.182482       -32.1770 
  28   2.0000      -1.141358       -31.0579 
  29   2.0000      -1.129902       -30.7462 
  30   2.0000      -1.071241       -29.1500 
  31   2.0000      -1.008193       -27.4343 
  32   2.0000      -1.000772       -27.2324 
  33   2.0000      -0.944146       -25.6915 
  34   2.0000      -0.937108       -25.5000 
  35   2.0000      -0.925294       -25.1785 
  36   2.0000      -0.911386       -24.8001 
  37   2.0000      -0.879712       -23.9382 
  38   2.0000      -0.850971       -23.1561 
  39   2.0000      -0.823163       -22.3994 
  40   2.0000      -0.792226       -21.5576 
  41   2.0000      -0.779889       -21.2219 
  42   2.0000      -0.753588       -20.5062 
  43   2.0000      -0.721809       -19.6414 
  44   2.0000      -0.703063       -19.1313 
  45   2.0000      -0.698015       -18.9939 
  46   2.0000      -0.680841       -18.5266 
  47   2.0000      -0.661915       -18.0116 
  48   2.0000      -0.658998       -17.9323 
  49   2.0000      -0.658783       -17.9264 
  50   2.0000      -0.643427       -17.5085 
  51   2.0000      -0.638076       -17.3629 
  52   2.0000      -0.633910       -17.2496 
  53   2.0000      -0.614301       -16.7160 
  54   2.0000      -0.611273       -16.6336 
  55   2.0000      -0.606240       -16.4966 
  56   2.0000      -0.596563       -16.2333 
  57   2.0000      -0.592450       -16.1214 
  58   2.0000      -0.590990       -16.0817 
  59   2.0000      -0.577136       -15.7047 
  60   2.0000      -0.571877       -15.5616 
  61   2.0000      -0.554784       -15.0964 
  62   2.0000      -0.544782       -14.8243 
  63   2.0000      -0.534566       -14.5463 
  64   2.0000      -0.519222       -14.1288 
  65   2.0000      -0.512831       -13.9548 
  66   2.0000      -0.510880       -13.9017 
  67   2.0000      -0.503006       -13.6875 
  68   2.0000      -0.500113       -13.6088 
  69   2.0000      -0.498788       -13.5727 
  70   2.0000      -0.488209       -13.2848 
  71   2.0000      -0.482311       -13.1244 
  72   2.0000      -0.469049       -12.7635 
  73   2.0000      -0.446456       -12.1487 
  74   2.0000      -0.437902       -11.9159 
  75   2.0000      -0.406350       -11.0573 
  76   2.0000      -0.390129       -10.6160 
  77   2.0000      -0.341233        -9.2854 
  78   2.0000      -0.328823        -8.9477 
  79   2.0000      -0.310289        -8.4434 
  80   2.0000      -0.301259        -8.1977 
  81   0.0000       0.113654         3.0927 
  82   0.0000       0.129744         3.5305 
  83   0.0000       0.150951         4.1076 
  84   0.0000       0.157719         4.2918 
  85   0.0000       0.169157         4.6030 
  86   0.0000       0.178733         4.8636 
  87   0.0000       0.193508         5.2656 
  88   0.0000       0.199806         5.4370 
  89   0.0000       0.206173         5.6103 
  90   0.0000       0.213337         5.8052 
  91   0.0000       0.234546         6.3823 
  92   0.0000       0.237197         6.4545 
  93   0.0000       0.245807         6.6887 
  94   0.0000       0.248399         6.7593 
  95   0.0000       0.254511         6.9256 
  96   0.0000       0.259257         7.0547 
  97   0.0000       0.259871         7.0715 
  98   0.0000       0.268643         7.3101 
  99   0.0000       0.272278         7.4091 
 100   0.0000       0.276990         7.5373 
 101   0.0000       0.284979         7.7547 
 102   0.0000       0.289812         7.8862 
 103   0.0000       0.299244         8.1428 
 104   0.0000       0.302339         8.2271 
 105   0.0000       0.310874         8.4593 
 106   0.0000       0.318580         8.6690 
 107   0.0000       0.328636         8.9426 
 108   0.0000       0.333860         9.0848 
 109   0.0000       0.343691         9.3523 
 110   0.0000       0.353209         9.6113 
 111   0.0000       0.366832         9.9820 
 112   0.0000       0.402018        10.9395 
 113   0.0000       0.419855        11.4248 
 114   0.0000       0.426398        11.6029 
 115   0.0000       0.440398        11.9838 
 116   0.0000       0.445650        12.1268 
 117   0.0000       0.449073        12.2199 
 118   0.0000       0.467788        12.7292 
 119   0.0000       0.475648        12.9430 
 120   0.0000       0.478959        13.0331 
 121   0.0000       0.493906        13.4399 
 122   0.0000       0.502309        13.6685 
 123   0.0000       0.510551        13.8928 
 124   0.0000       0.524231        14.2650 
 125   0.0000       0.543420        14.7872 
 126   0.0000       0.555833        15.1250 
 127   0.0000       0.568743        15.4763 
 128   0.0000       0.581608        15.8264 
 129   0.0000       0.589808        16.0495 
 130   0.0000       0.595627        16.2078 
 131   0.0000       0.605447        16.4751 
 132   0.0000       0.619889        16.8680 
 133   0.0000       0.628324        17.0976 
 134   0.0000       0.637292        17.3416 
 135   0.0000       0.645016        17.5518 
 136   0.0000       0.649006        17.6604 
 137   0.0000       0.657421        17.8893 
 138   0.0000       0.664113        18.0714 
 139   0.0000       0.671656        18.2767 
 140   0.0000       0.677630        18.4392 
 141   0.0000       0.684720        18.6322 
 142   0.0000       0.703970        19.1560 
 143   0.0000       0.707283        19.2462 
 144   0.0000       0.709934        19.3183 
 145   0.0000       0.713352        19.4113 
 146   0.0000       0.729362        19.8469 
 147   0.0000       0.736202        20.0331 
 148   0.0000       0.745071        20.2744 
 149   0.0000       0.764880        20.8134 
 150   0.0000       0.785364        21.3708 
 151   0.0000       0.791055        21.5257 
 152   0.0000       0.798052        21.7161 
 153   0.0000       0.805612        21.9218 
 154   0.0000       0.808274        21.9943 
 155   0.0000       0.821540        22.3552 
 156   0.0000       0.824553        22.4372 
 157   0.0000       0.837205        22.7815 
 158   0.0000       0.838421        22.8146 
 159   0.0000       0.853765        23.2321 
 160   0.0000       0.856354        23.3026 
 161   0.0000       0.860219        23.4078 
 162   0.0000       0.862688        23.4749 
 163   0.0000       0.869902        23.6712 
 164   0.0000       0.873427        23.7671 
 165   0.0000       0.875623        23.8269 
 166   0.0000       0.885972        24.1085 
 167   0.0000       0.887480        24.1496 
 168   0.0000       0.891151        24.2495 
 169   0.0000       0.896694        24.4003 
 170   0.0000       0.899063        24.4647 
 171   0.0000       0.905922        24.6514 
 172   0.0000       0.910043        24.7635 
 173   0.0000       0.915097        24.9011 
 174   0.0000       0.916177        24.9304 
 175   0.0000       0.922881        25.1129 
 176   0.0000       0.927570        25.2405 
 177   0.0000       0.931832        25.3564 
 178   0.0000       0.937051        25.4985 
 179   0.0000       0.941371        25.6160 
 180   0.0000       0.944438        25.6995 
 181   0.0000       0.950482        25.8639 
 182   0.0000       0.960203        26.1284 
 183   0.0000       0.961705        26.1693 
 184   0.0000       0.971578        26.4380 
 185   0.0000       0.978222        26.6188 
 186   0.0000       0.980396        26.6779 
 187   0.0000       0.990152        26.9434 
 188   0.0000       1.005122        27.3508 
 189   0.0000       1.008884        27.4531 
 190   0.0000       1.013855        27.5884 
 191   0.0000       1.031373        28.0651 
 192   0.0000       1.035658        28.1817 
 193   0.0000       1.040905        28.3245 
 194   0.0000       1.050998        28.5991 
 195   0.0000       1.060955        28.8700 
 196   0.0000       1.072639        29.1880 
 197   0.0000       1.077078        29.3088 
 198   0.0000       1.080247        29.3950 
 199   0.0000       1.090026        29.6611 
 200   0.0000       1.100695        29.9514 
 201   0.0000       1.121527        30.5183 
 202   0.0000       1.125155        30.6170 
 203   0.0000       1.154907        31.4266 
 204   0.0000       1.161354        31.6021 
 205   0.0000       1.169181        31.8150 
 206   0.0000       1.176372        32.0107 
 207   0.0000       1.180854        32.1327 
 208   0.0000       1.201658        32.6988 
 209   0.0000       1.209787        32.9200 
 210   0.0000       1.222406        33.2634 
 211   0.0000       1.225476        33.3469 
 212   0.0000       1.249280        33.9946 
 213   0.0000       1.263065        34.3697 
 214   0.0000       1.279356        34.8130 
 215   0.0000       1.290664        35.1208 
 216   0.0000       1.309433        35.6315 
 217   0.0000       1.318020        35.8651 
 218   0.0000       1.329414        36.1752 
 219   0.0000       1.340427        36.4749 
 220   0.0000       1.346547        36.6414 
 221   0.0000       1.374587        37.4044 
 222   0.0000       1.386050        37.7163 
 223   0.0000       1.403036        38.1786 
 224   0.0000       1.409304        38.3491 
 225   0.0000       1.429972        38.9115 
 226   0.0000       1.432607        38.9832 
 227   0.0000       1.445428        39.3321 
 228   0.0000       1.449881        39.4533 
 229   0.0000       1.458632        39.6914 
 230   0.0000       1.460995        39.7557 
 231   0.0000       1.494732        40.6737 
 232   0.0000       1.497547        40.7503 
 233   0.0000       1.518936        41.3324 
 234   0.0000       1.538253        41.8580 
 235   0.0000       1.542488        41.9732 
 236   0.0000       1.543933        42.0125 
 237   0.0000       1.551049        42.2062 
 238   0.0000       1.562851        42.5273 
 239   0.0000       1.577580        42.9281 
 240   0.0000       1.588922        43.2368 
 241   0.0000       1.593697        43.3667 
 242   0.0000       1.607005        43.7288 
 243   0.0000       1.634020        44.4639 
 244   0.0000       1.640394        44.6374 
 245   0.0000       1.647925        44.8423 
 246   0.0000       1.650548        44.9137 
 247   0.0000       1.678611        45.6773 
 248   0.0000       1.722860        46.8814 
 249   0.0000       1.732797        47.1518 
 250   0.0000       1.770899        48.1886 
 251   0.0000       1.783150        48.5220 
 252   0.0000       1.792748        48.7832 
 253   0.0000       1.795952        48.8703 
 254   0.0000       1.801586        49.0236 
 255   0.0000       1.810146        49.2566 
 256   0.0000       1.831523        49.8383 
 257   0.0000       1.835130        49.9364 
 258   0.0000       1.842283        50.1311 
 259   0.0000       1.849972        50.3403 
 260   0.0000       1.860429        50.6249 
 261   0.0000       1.862048        50.6689 
 262   0.0000       1.881353        51.1942 
 263   0.0000       1.892068        51.4858 
 264   0.0000       1.927882        52.4603 
 265   0.0000       1.938956        52.7617 
 266   0.0000       1.941151        52.8214 
 267   0.0000       1.964567        53.4586 
 268   0.0000       1.971581        53.6495 
 269   0.0000       1.986039        54.0429 
 270   0.0000       1.991020        54.1784 
 271   0.0000       1.997420        54.3526 
 272   0.0000       2.007041        54.6144 
 273   0.0000       2.021370        55.0043 
 274   0.0000       2.033066        55.3226 
 275   0.0000       2.038390        55.4674 
 276   0.0000       2.043175        55.5976 
 277   0.0000       2.056532        55.9611 
 278   0.0000       2.063907        56.1618 
 279   0.0000       2.066041        56.2198 
 280   0.0000       2.072092        56.3845 
 281   0.0000       2.078326        56.5541 
 282   0.0000       2.083888        56.7055 
 283   0.0000       2.094448        56.9928 
 284   0.0000       2.102612        57.2150 
 285   0.0000       2.104208        57.2584 
 286   0.0000       2.116958        57.6053 
 287   0.0000       2.123084        57.7721 
 288   0.0000       2.125703        57.8433 
 289   0.0000       2.126917        57.8764 
 290   0.0000       2.140034        58.2333 
 291   0.0000       2.143247        58.3207 
 292   0.0000       2.152037        58.5599 
 293   0.0000       2.161574        58.8194 
 294   0.0000       2.165881        58.9366 
 295   0.0000       2.168368        59.0043 
 296   0.0000       2.176884        59.2360 
 297   0.0000       2.184560        59.4449 
 298   0.0000       2.198570        59.8261 
 299   0.0000       2.205800        60.0229 
 300   0.0000       2.210285        60.1449 
 301   0.0000       2.217162        60.3320 
 302   0.0000       2.220337        60.4184 
 303   0.0000       2.223303        60.4992 
 304   0.0000       2.234510        60.8041 
 305   0.0000       2.249894        61.2227 
 306   0.0000       2.252553        61.2951 
 307   0.0000       2.261098        61.5276 
 308   0.0000       2.282842        62.1193 
 309   0.0000       2.302783        62.6619 
 310   0.0000       2.322780        63.2061 
 311   0.0000       2.326440        63.3056 
 312   0.0000       2.335416        63.5499 
 313   0.0000       2.347963        63.8913 
 314   0.0000       2.365995        64.3820 
 315   0.0000       2.391191        65.0676 
 316   0.0000       2.402246        65.3684 
 317   0.0000       2.418731        65.8170 
 318   0.0000       2.433272        66.2127 
 319   0.0000       2.439400        66.3795 
 320   0.0000       2.456970        66.8576 
 321   0.0000       2.479399        67.4679 
 322   0.0000       2.505146        68.1685 
 323   0.0000       2.513136        68.3859 
 324   0.0000       2.522391        68.6377 
 325   0.0000       2.527147        68.7672 
 326   0.0000       2.539452        69.1020 
 327   0.0000       2.543088        69.2009 
 328   0.0000       2.558900        69.6312 
 329   0.0000       2.567304        69.8599 
 330   0.0000       2.573862        70.0383 
 331   0.0000       2.588552        70.4381 
 332   0.0000       2.596065        70.6425 
 333   0.0000       2.601450        70.7890 
 334   0.0000       2.611286        71.0567 
 335   0.0000       2.618770        71.2603 
 336   0.0000       2.645391        71.9847 
 337   0.0000       2.650207        72.1158 
 338   0.0000       2.655063        72.2479 
 339   0.0000       2.665993        72.5454 
 340   0.0000       2.668768        72.6209 
 341   0.0000       2.674033        72.7641 
 342   0.0000       2.691316        73.2344 
 343   0.0000       2.698688        73.4350 
 344   0.0000       2.728382        74.2430 
 345   0.0000       2.737747        74.4979 
 346   0.0000       2.764761        75.2330 
 347   0.0000       2.778831        75.6158 
 348   0.0000       2.787389        75.8487 
 349   0.0000       2.810323        76.4728 
 350   0.0000       2.830953        77.0341 
 351   0.0000       2.844466        77.4019 
 352   0.0000       2.878592        78.3305 
 353   0.0000       2.894717        78.7693 
 354   0.0000       2.917040        79.3767 
 355   0.0000       2.934169        79.8428 
 356   0.0000       2.939301        79.9824 
 357   0.0000       2.959866        80.5421 
 358   0.0000       2.973514        80.9134 
 359   0.0000       2.986475        81.2661 
 360   0.0000       3.000673        81.6525 
 361   0.0000       3.014350        82.0246 
 362   0.0000       3.018620        82.1408 
 363   0.0000       3.030417        82.4618 
 364   0.0000       3.034415        82.5706 
 365   0.0000       3.067794        83.4789 
 366   0.0000       3.083356        83.9024 
 367   0.0000       3.108909        84.5977 
 368   0.0000       3.113442        84.7211 
 369   0.0000       3.138412        85.4005 
 370   0.0000       3.140106        85.4466 
 371   0.0000       3.154508        85.8385 
 372   0.0000       3.166039        86.1523 
 373   0.0000       3.176942        86.4490 
 374   0.0000       3.181127        86.5629 
 375   0.0000       3.213510        87.4441 
 376   0.0000       3.219960        87.6196 
 377   0.0000       3.227337        87.8203 
 378   0.0000       3.239053        88.1391 
 379   0.0000       3.247789        88.3768 
 380   0.0000       3.255725        88.5928 
 381   0.0000       3.266205        88.8780 
 382   0.0000       3.271498        89.0220 
 383   0.0000       3.280767        89.2742 
 384   0.0000       3.284776        89.3833 
 385   0.0000       3.288598        89.4873 
 386   0.0000       3.311632        90.1141 
 387   0.0000       3.329459        90.5992 
 388   0.0000       3.351424        91.1969 
 389   0.0000       3.364972        91.5656 
 390   0.0000       3.416893        92.9784 
 391   0.0000       3.421466        93.1028 
 392   0.0000       3.429571        93.3234 
 393   0.0000       3.444980        93.7427 
 394   0.0000       3.451695        93.9254 
 395   0.0000       3.479124        94.6718 
 396   0.0000       3.498828        95.2079 
 397   0.0000       3.509214        95.4906 
 398   0.0000       3.525843        95.9431 
 399   0.0000       3.549507        96.5870 
 400   0.0000       3.575695        97.2996 
 401   0.0000       3.582528        97.4856 
 402   0.0000       3.591471        97.7289 
 403   0.0000       3.655162        99.4620 
 404   0.0000       3.693193       100.4969 
 405   0.0000       3.709088       100.9294 
 406   0.0000       3.791491       103.1717 
 407   0.0000       3.815393       103.8221 
 408   0.0000       3.909823       106.3917 
 409   0.0000       3.934498       107.0631 
 410   0.0000       3.946132       107.3797 
 411   0.0000       4.058436       110.4357 
 412   0.0000       4.124744       112.2400 

                    ********************************
                    * MULLIKEN POPULATION ANALYSIS *
                    ********************************

-----------------------
MULLIKEN ATOMIC CHARGES
-----------------------
   0 C :    0.232459
   1 O :   -0.568962
   2 C :    0.399246
   3 C :   -0.179013
   4 C :   -0.078306
   5 C :    0.236201
   6 C :   -0.376864
   7 C :    0.263526
   8 N :   -0.428289
   9 C :    0.374905
  10 N :   -0.248586
  11 N :   -0.435530
  12 C :    0.310270
  13 N :   -0.274560
  14 C :   -0.168110
  15 C :    0.385355
  16 O :   -0.543831
  17 C :    0.229679
  18 C :   -0.030563
  19 N :   -0.578845
  20 C :    0.181140
  21 C :    0.179333
  22 H :    0.032851
  23 H :    0.033661
  24 H :    0.050377
  25 H :    0.010127
  26 H :    0.033736
  27 H :    0.037265
  28 H :    0.044154
  29 H :    0.153547
  30 H :    0.149519
  31 H :    0.145978
  32 H :    0.149867
  33 H :    0.033617
  34 H :    0.046438
  35 H :    0.029341
  36 H :    0.032428
  37 H :    0.016450
  38 H :    0.032570
  39 H :    0.019309
  40 H :    0.029881
  41 H :    0.020280
  42 H :    0.017945
Sum of atomic charges:    0.0000000

--------------------------------
MULLIKEN REDUCED ORBITAL CHARGES
--------------------------------
  0 C s       :     3.017304  s :     3.017304
      pz      :     0.785620  p :     2.686587
      px      :     1.017138
      py      :     0.883830
      dz2     :     0.014849  d :     0.063650
      dxz     :     0.008596
      dyz     :     0.020835
      dx2y2   :     0.004497
      dxy     :     0.014873
  1 O s       :     3.808125  s :     3.808125
      pz      :     1.545431  p :     4.743068
      px      :     1.620804
      py      :     1.576833
      dz2     :     0.003047  d :     0.017770
      dxz     :     0.004307
      dyz     :     0.002841
      dx2y2   :     0.002493
      dxy     :     0.005082
  2 C s       :     2.983719  s :     2.983719
      pz      :     0.908756  p :     2.533184
      px      :     0.774504
      py      :     0.849924
      dz2     :     0.015404  d :     0.083851
      dxz     :     0.019756
      dyz     :     0.011369
      dx2y2   :     0.017351
      dxy     :     0.019971
  3 C s       :     3.236821  s :     3.236821
      pz      :     0.974431  p :     2.902053
      px      :     0.896811
      py      :     1.030810
      dz2     :     0.006065  d :     0.040139
      dxz     :     0.009629
      dyz     :     0.005916
      dx2y2   :     0.009801
      dxy     :     0.008728
  4 C s       :     3.011583  s :     3.011583
      pz      :     1.009959  p :     3.011919
      px      :     1.018828
      py      :     0.983131
      dz2     :     0.011270  d :     0.054805
      dxz     :     0.012870
      dyz     :     0.007921
      dx2y2   :     0.011831
      dxy     :     0.010912
  5 C s       :     2.939503  s :     2.939503
      pz      :     0.955569  p :     2.778164
      px      :     0.845435
      py      :     0.977160
      dz2     :     0.009447  d :     0.046133
      dxz     :     0.010116
      dyz     :     0.007532
      dx2y2   :     0.012821
      dxy     :     0.006217
  6 C s       :     3.074171  s :     3.074171
      pz      :     1.137603  p :     3.254518
      px      :     1.101061
      py      :     1.015854
      dz2     :     0.008019  d :     0.048175
      dxz     :     0.007566
      dyz     :     0.009881
      dx2y2   :     0.012011
      dxy     :     0.010698
  7 C s       :     3.103607  s :     3.103607
      pz      :     0.830940  p :     2.564319
      px      :     0.840088
      py      :     0.893291
      dz2     :     0.010107  d :     0.068548
      dxz     :     0.010166
      dyz     :     0.016327
      dx2y2   :     0.014797
      dxy     :     0.017151
  8 N s       :     3.545800  s :     3.545800
      pz      :     1.163869  p :     3.851052
      px      :     1.143513
      py      :     1.543669
      dz2     :     0.003362  d :     0.031438
      dxz     :     0.004265
      dyz     :     0.009800
      dx2y2   :     0.003410
      dxy     :     0.010601
  9 C s       :     2.997372  s :     2.997372
      pz      :     0.836409  p :     2.505657
      px      :     0.793382
      py      :     0.875866
      dz2     :     0.021935  d :     0.122065
      dxz     :     0.015297
      dyz     :     0.028522
      dx2y2   :     0.027726
      dxy     :     0.028585
 10 N s       :     3.374832  s :     3.374832
      pz      :     1.235752  p :     3.851886
      px      :     1.539941
      py      :     1.076194
      dz2     :     0.003105  d :     0.021867
      dxz     :     0.003742
      dyz     :     0.006545
      dx2y2   :     0.003039
      dxy     :     0.005436
 11 N s       :     3.546675  s :     3.546675
      pz      :     1.351310  p :     3.858693
      px      :     1.348549
      py      :     1.158834
      dz2     :     0.005990  d :     0.030162
      dxz     :     0.006022
      dyz     :     0.004335
      dx2y2   :     0.009543
      dxy     :     0.004272
 12 C s       :     3.017255  s :     3.017255
      pz      :     0.876222  p :     2.572809
      px      :     0.850159
      py      :     0.846429
      dz2     :     0.017907  d :     0.099666
      dxz     :     0.011689
      dyz     :     0.019157
      dx2y2   :     0.025414
      dxy     :     0.025499
 13 N s       :     3.402825  s :     3.402825
      pz      :     1.142682  p :     3.848927
      px      :     1.560704
      py      :     1.145541
      dz2     :     0.005224  d :     0.022808
      dxz     :     0.004572
      dyz     :     0.003001
      dx2y2   :     0.007538
      dxy     :     0.002473
 14 C s       :     3.248985  s :     3.248985
      pz      :     0.982551  p :     2.879195
      px      :     0.878183
      py      :     1.018460
      dz2     :     0.007311  d :     0.039930
      dxz     :     0.009948
      dyz     :     0.006519
      dx2y2   :     0.008156
      dxy     :     0.007997
 15 C s       :     3.000152  s :     3.000152
      pz      :     0.763041  p :     2.529933
      px      :     0.922612
      py      :     0.844281
      dz2     :     0.019111  d :     0.084559
      dxz     :     0.019249
      dyz     :     0.015694
      dx2y2   :     0.015228
      dxy     :     0.015277
 16 O s       :     3.802850  s :     3.802850
      pz      :     1.443028  p :     4.722703
      px      :     1.618509
      py      :     1.661166
      dz2     :     0.002783  d :     0.018278
      dxz     :     0.005730
      dyz     :     0.003132
      dx2y2   :     0.002859
      dxy     :     0.003774
 17 C s       :     3.016347  s :     3.016347
      pz      :     0.896362  p :     2.690044
      px      :     0.843253
      py      :     0.950429
      dz2     :     0.008862  d :     0.063929
      dxz     :     0.018619
      dyz     :     0.012413
      dx2y2   :     0.005672
      dxy     :     0.018363
 18 C s       :     3.068446  s :     3.068446
      pz      :     0.974691  p :     2.896652
      px      :     0.878888
      py      :     1.043073
      dz2     :     0.012268  d :     0.065464
      dxz     :     0.017968
      dyz     :     0.007698
      dx2y2   :     0.012912
      dxy     :     0.014618
 19 N s       :     3.550666  s :     3.550666
      pz      :     1.565038  p :     3.995147
      px      :     1.092552
      py      :     1.337557
      dz2     :     0.003897  d :     0.033031
      dxz     :     0.009684
      dyz     :     0.003748
      dx2y2   :     0.009498
      dxy     :     0.006204
 20 C s       :     2.988739  s :     2.988739
      pz      :     0.922475  p :     2.777109
      px      :     0.900456
      py      :     0.954178
      dz2     :     0.010134  d :     0.053013
      dxz     :     0.013857
      dyz     :     0.009913
      dx2y2   :     0.009793
      dxy     :     0.009316
 21 C s       :     2.991604  s :     2.991604
      pz      :     0.975446  p :     2.776250
      px      :     0.991704
      py      :     0.809099
      dz2     :     0.004428  d :     0.052813
      dxz     :     0.012363
      dyz     :     0.015564
      dx2y2   :     0.011215
      dxy     :     0.009243
 22 H s       :     0.942231  s :     0.942231
      pz      :     0.003454  p :     0.024919
      px      :     0.011360
      py      :     0.010105
 23 H s       :     0.941429  s :     0.941429
      pz      :     0.012318  p :     0.024910
      px      :     0.005199
      py      :     0.007392
 24 H s       :     0.925082  s :     0.925082
      pz      :     0.003662  p :     0.024541
      px      :     0.013526
      py      :     0.007353
 25 H s       :     0.963472  s :     0.963472
      pz      :     0.013510  p :     0.026401
      px      :     0.004066
      py      :     0.008825
 26 H s       :     0.941695  s :     0.941695
      pz      :     0.014949  p :     0.024568
      px      :     0.003047
      py      :     0.006572
 27 H s       :     0.937728  s :     0.937728
      pz      :     0.004404  p :     0.025006
      px      :     0.003747
      py      :     0.016855
 28 H s       :     0.931541  s :     0.931541
      pz      :     0.006760  p :     0.024306
      px      :     0.008098
      py      :     0.009447
 29 H s       :     0.797721  s :     0.797721
      pz      :     0.008217  p :     0.048733
      px      :     0.012479
      py      :     0.028037
 30 H s       :     0.801724  s :     0.801724
      pz      :     0.019892  p :     0.048757
      px      :     0.012765
      py      :     0.016100
 31 H s       :     0.806164  s :     0.806164
      pz      :     0.019454  p :     0.047858
      px      :     0.020132
      py      :     0.008272
 32 H s       :     0.800587  s :     0.800587
      pz      :     0.025303  p :     0.049546
      px      :     0.012438
      py      :     0.011805
 33 H s       :     0.939659  s :     0.939659
      pz      :     0.005937  p :     0.026723
      px      :     0.010817
      py      :     0.009970
 34 H s       :     0.929090  s :     0.929090
      pz      :     0.012881  p :     0.024472
      px      :     0.005729
      py      :     0.005862
 35 H s       :     0.945911  s :     0.945911
      pz      :     0.005924  p :     0.024748
      px      :     0.006357
      py      :     0.012466
 36 H s       :     0.942591  s :     0.942591
      pz      :     0.004735  p :     0.024980
      px      :     0.009706
      py      :     0.010539
 37 H s       :     0.958917  s :     0.958917
      pz      :     0.013955  p :     0.024633
      px      :     0.003611
      py      :     0.007067
 38 H s       :     0.942876  s :     0.942876
      pz      :     0.004229  p :     0.024554
      px      :     0.004472
      py      :     0.015852
 39 H s       :     0.956335  s :     0.956335
      pz      :     0.006722  p :     0.024356
      px      :     0.013700
      py      :     0.003934
 40 H s       :     0.945396  s :     0.945396
      pz      :     0.007799  p :     0.024723
      px      :     0.011138
      py      :     0.005786
 41 H s       :     0.954804  s :     0.954804
      pz      :     0.012507  p :     0.024916
      px      :     0.005034
      py      :     0.007375
 42 H s       :     0.957825  s :     0.957825
      pz      :     0.009801  p :     0.024230
      px      :     0.011913
      py      :     0.002516


                     *******************************
                     * LOEWDIN POPULATION ANALYSIS *
                     *******************************

----------------------
LOEWDIN ATOMIC CHARGES
----------------------
   0 C :    0.133908
   1 O :   -0.193076
   2 C :    0.109788
   3 C :   -0.116858
   4 C :    0.003780
   5 C :    0.012100
   6 C :   -0.164909
   7 C :    0.136074
   8 N :   -0.232153
   9 C :    0.145947
  10 N :   -0.059374
  11 N :   -0.245933
  12 C :    0.141512
  13 N :   -0.079897
  14 C :   -0.103416
  15 C :    0.120753
  16 O :   -0.191700
  17 C :    0.132207
  18 C :   -0.037746
  19 N :   -0.170195
  20 C :    0.065006
  21 C :    0.061654
  22 H :    0.008108
  23 H :    0.008218
  24 H :    0.020833
  25 H :    0.018023
  26 H :    0.025763
  27 H :    0.026712
  28 H :    0.025341
  29 H :    0.078526
  30 H :    0.076197
  31 H :    0.075951
  32 H :    0.075340
  33 H :    0.025716
  34 H :    0.019031
  35 H :    0.005260
  36 H :    0.008720
  37 H :   -0.005545
  38 H :    0.015342
  39 H :    0.008158
  40 H :    0.014748
  41 H :   -0.004636
  42 H :    0.006720

-------------------------------
LOEWDIN REDUCED ORBITAL CHARGES
-------------------------------
  0 C s       :     2.834215  s :     2.834215
      pz      :     0.880507  p :     2.895696
      px      :     1.059639
      py      :     0.955549
      dz2     :     0.032461  d :     0.136181
      dxz     :     0.018896
      dyz     :     0.042440
      dx2y2   :     0.008532
      dxy     :     0.033852
  1 O s       :     3.443029  s :     3.443029
      pz      :     1.531594  p :     4.720325
      px      :     1.623716
      py      :     1.565015
      dz2     :     0.005278  d :     0.029722
      dxz     :     0.006758
      dyz     :     0.005598
      dx2y2   :     0.004118
      dxy     :     0.007970
  2 C s       :     2.837941  s :     2.837941
      pz      :     0.979959  p :     2.873598
      px      :     0.979669
      py      :     0.913970
      dz2     :     0.032850  d :     0.178672
      dxz     :     0.042136
      dyz     :     0.023787
      dx2y2   :     0.037479
      dxy     :     0.042421
  3 C s       :     2.845691  s :     2.845691
      pz      :     1.059629  p :     3.176770
      px      :     1.041761
      py      :     1.075379
      dz2     :     0.013818  d :     0.094396
      dxz     :     0.022978
      dyz     :     0.013498
      dx2y2   :     0.023443
      dxy     :     0.020660
  4 C s       :     2.847871  s :     2.847871
      pz      :     1.012636  p :     3.030698
      px      :     1.025847
      py      :     0.992216
      dz2     :     0.023555  d :     0.117651
      dxz     :     0.028030
      dyz     :     0.017616
      dx2y2   :     0.025256
      dxy     :     0.023194
  5 C s       :     2.813084  s :     2.813084
      pz      :     1.025880  p :     3.070454
      px      :     0.999092
      py      :     1.045482
      dz2     :     0.021479  d :     0.104363
      dxz     :     0.022786
      dyz     :     0.016865
      dx2y2   :     0.029198
      dxy     :     0.014035
  6 C s       :     2.839228  s :     2.839228
      pz      :     1.082778  p :     3.213473
      px      :     1.066239
      py      :     1.064456
      dz2     :     0.016392  d :     0.112207
      dxz     :     0.017349
      dyz     :     0.023342
      dx2y2   :     0.029265
      dxy     :     0.025860
  7 C s       :     2.850199  s :     2.850199
      pz      :     0.894415  p :     2.866264
      px      :     0.911427
      py      :     1.060422
      dz2     :     0.019223  d :     0.147464
      dxz     :     0.020421
      dyz     :     0.036685
      dx2y2   :     0.031791
      dxy     :     0.039344
  8 N s       :     3.217288  s :     3.217288
      pz      :     1.201229  p :     3.955837
      px      :     1.186144
      py      :     1.568464
      dz2     :     0.006401  d :     0.059028
      dxz     :     0.010727
      dyz     :     0.016735
      dx2y2   :     0.006509
      dxy     :     0.018656
  9 C s       :     2.812733  s :     2.812733
      pz      :     0.881114  p :     2.791949
      px      :     0.886155
      py      :     1.024679
      dz2     :     0.042797  d :     0.249370
      dxz     :     0.029295
      dyz     :     0.058712
      dx2y2   :     0.058457
      dxy     :     0.060109
 10 N s       :     3.078219  s :     3.078219
      pz      :     1.262150  p :     3.934025
      px      :     1.522041
      py      :     1.149834
      dz2     :     0.006863  d :     0.047131
      dxz     :     0.007697
      dyz     :     0.015406
      dx2y2   :     0.006808
      dxy     :     0.010356
 11 N s       :     3.212078  s :     3.212078
      pz      :     1.366867  p :     3.976110
      px      :     1.359089
      py      :     1.250154
      dz2     :     0.009443  d :     0.057745
      dxz     :     0.010310
      dyz     :     0.009538
      dx2y2   :     0.019259
      dxy     :     0.009196
 12 C s       :     2.824597  s :     2.824597
      pz      :     0.928629  p :     2.828388
      px      :     0.935233
      py      :     0.964525
      dz2     :     0.035776  d :     0.205503
      dxz     :     0.026370
      dyz     :     0.037581
      dx2y2   :     0.054233
      dxy     :     0.051543
 13 N s       :     3.097952  s :     3.097952
      pz      :     1.197878  p :     3.934585
      px      :     1.543069
      py      :     1.193638
      dz2     :     0.011298  d :     0.047360
      dxz     :     0.008989
      dyz     :     0.008311
      dx2y2   :     0.014294
      dxy     :     0.004468
 14 C s       :     2.845371  s :     2.845371
      pz      :     1.058698  p :     3.164333
      px      :     1.040529
      py      :     1.065106
      dz2     :     0.016196  d :     0.093712
      dxz     :     0.025007
      dyz     :     0.014579
      dx2y2   :     0.018793
      dxy     :     0.019137
 15 C s       :     2.838371  s :     2.838371
      pz      :     0.878669  p :     2.862468
      px      :     1.067873
      py      :     0.915926
      dz2     :     0.038091  d :     0.178408
      dxz     :     0.042882
      dyz     :     0.031994
      dx2y2   :     0.032226
      dxy     :     0.033214
 16 O s       :     3.447955  s :     3.447955
      pz      :     1.446867  p :     4.713605
      px      :     1.622382
      py      :     1.644356
      dz2     :     0.005102  d :     0.030141
      dxz     :     0.009255
      dyz     :     0.006071
      dx2y2   :     0.004117
      dxy     :     0.005596
 17 C s       :     2.834580  s :     2.834580
      pz      :     0.954031  p :     2.896766
      px      :     0.930430
      py      :     1.012305
      dz2     :     0.018942  d :     0.136447
      dxz     :     0.038798
      dyz     :     0.025750
      dx2y2   :     0.011942
      dxy     :     0.041015
 18 C s       :     2.835490  s :     2.835490
      pz      :     1.038161  p :     3.058006
      px      :     0.966364
      py      :     1.053481
      dz2     :     0.026195  d :     0.144250
      dxz     :     0.040657
      dyz     :     0.017202
      dx2y2   :     0.027652
      dxy     :     0.032545
 19 N s       :     3.112030  s :     3.112030
      pz      :     1.538005  p :     3.993997
      px      :     1.132369
      py      :     1.323622
      dz2     :     0.006622  d :     0.064169
      dxz     :     0.017938
      dyz     :     0.007264
      dx2y2   :     0.019014
      dxy     :     0.013331
 20 C s       :     2.827499  s :     2.827499
      pz      :     1.002649  p :     2.990868
      px      :     0.977380
      py      :     1.010839
      dz2     :     0.023071  d :     0.116628
      dxz     :     0.030607
      dyz     :     0.021758
      dx2y2   :     0.021782
      dxy     :     0.019409
 21 C s       :     2.827377  s :     2.827377
      pz      :     1.034667  p :     2.994520
      px      :     1.042703
      py      :     0.917150
      dz2     :     0.009062  d :     0.116449
      dxz     :     0.027706
      dyz     :     0.034460
      dx2y2   :     0.024597
      dxy     :     0.020625
 22 H s       :     0.927090  s :     0.927090
      pz      :     0.010315  p :     0.064802
      px      :     0.028452
      py      :     0.026034
 23 H s       :     0.926959  s :     0.926959
      pz      :     0.031297  p :     0.064824
      px      :     0.014476
      py      :     0.019051
 24 H s       :     0.916061  s :     0.916061
      pz      :     0.011041  p :     0.063106
      px      :     0.033012
      py      :     0.019052
 25 H s       :     0.909625  s :     0.909625
      pz      :     0.034054  p :     0.072352
      px      :     0.013517
      py      :     0.024781
 26 H s       :     0.908917  s :     0.908917
      pz      :     0.035804  p :     0.065319
      px      :     0.011260
      py      :     0.018255
 27 H s       :     0.906745  s :     0.906745
      pz      :     0.013840  p :     0.066543
      px      :     0.013301
      py      :     0.039402
 28 H s       :     0.909966  s :     0.909966
      pz      :     0.018722  p :     0.064692
      px      :     0.021568
      py      :     0.024402
 29 H s       :     0.794391  s :     0.794391
      pz      :     0.023599  p :     0.127083
      px      :     0.039568
      py      :     0.063916
 30 H s       :     0.796666  s :     0.796666
      pz      :     0.051158  p :     0.127137
      px      :     0.038335
      py      :     0.037644
 31 H s       :     0.800409  s :     0.800409
      pz      :     0.043320  p :     0.123641
      px      :     0.057111
      py      :     0.023211
 32 H s       :     0.797922  s :     0.797922
      pz      :     0.059944  p :     0.126737
      px      :     0.037047
      py      :     0.029746
 33 H s       :     0.901119  s :     0.901119
      pz      :     0.018108  p :     0.073165
      px      :     0.027633
      py      :     0.027424
 34 H s       :     0.918028  s :     0.918028
      pz      :     0.031718  p :     0.062940
      px      :     0.015677
      py      :     0.015546
 35 H s       :     0.930173  s :     0.930173
      pz      :     0.016245  p :     0.064567
      px      :     0.017202
      py      :     0.031120
 36 H s       :     0.926437  s :     0.926437
      pz      :     0.014123  p :     0.064843
      px      :     0.024773
      py      :     0.025948
 37 H s       :     0.939743  s :     0.939743
      pz      :     0.035102  p :     0.065803
      px      :     0.012454
      py      :     0.018247
 38 H s       :     0.921537  s :     0.921537
      pz      :     0.012058  p :     0.063121
      px      :     0.013099
      py      :     0.037964
 39 H s       :     0.928906  s :     0.928906
      pz      :     0.017714  p :     0.062936
      px      :     0.033359
      py      :     0.011862
 40 H s       :     0.922180  s :     0.922180
      pz      :     0.020018  p :     0.063072
      px      :     0.027002
      py      :     0.016052
 41 H s       :     0.937782  s :     0.937782
      pz      :     0.029758  p :     0.066854
      px      :     0.015331
      py      :     0.021765
 42 H s       :     0.930363  s :     0.930363
      pz      :     0.024461  p :     0.062918
      px      :     0.028995
      py      :     0.009462


                      *****************************
                      * MAYER POPULATION ANALYSIS *
                      *****************************

  NA   - Mulliken gross atomic population
  ZA   - Total nuclear charge
  QA   - Mulliken gross atomic charge
  VA   - Mayer's total valence
  BVA  - Mayer's bonded valence
  FA   - Mayer's free valence

  ATOM       NA         ZA         QA         VA         BVA        FA
  0 C      5.7675     6.0000     0.2325     3.8384     3.8384     0.0000
  1 O      8.5690     8.0000    -0.5690     1.8923     1.8923    -0.0000
  2 C      5.6008     6.0000     0.3992     3.7170     3.7170     0.0000
  3 C      6.1790     6.0000    -0.1790     3.8590     3.8590     0.0000
  4 C      6.0783     6.0000    -0.0783     3.8210     3.8210     0.0000
  5 C      5.7638     6.0000     0.2362     3.8693     3.8693    -0.0000
  6 C      6.3769     6.0000    -0.3769     3.7552     3.7552    -0.0000
  7 C      5.7365     6.0000     0.2635     3.9644     3.9644    -0.0000
  8 N      7.4283     7.0000    -0.4283     2.9550     2.9550    -0.0000
  9 C      5.6251     6.0000     0.3749     4.1744     4.1744     0.0000
 10 N      7.2486     7.0000    -0.2486     3.0713     3.0713     0.0000
 11 N      7.4355     7.0000    -0.4355     2.9223     2.9223    -0.0000
 12 C      5.6897     6.0000     0.3103     4.0699     4.0699     0.0000
 13 N      7.2746     7.0000    -0.2746     3.0607     3.0607    -0.0000
 14 C      6.1681     6.0000    -0.1681     3.8202     3.8202     0.0000
 15 C      5.6146     6.0000     0.3854     3.8302     3.8302     0.0000
 16 O      8.5438     8.0000    -0.5438     1.9220     1.9220     0.0000
 17 C      5.7703     6.0000     0.2297     3.8445     3.8445     0.0000
 18 C      6.0306     6.0000    -0.0306     3.8898     3.8898     0.0000
 19 N      7.5788     7.0000    -0.5788     2.8760     2.8760    -0.0000
 20 C      5.8189     6.0000     0.1811     3.8498     3.8498     0.0000
 21 C      5.8207     6.0000     0.1793     3.8507     3.8507     0.0000
 22 H      0.9671     1.0000     0.0329     0.9806     0.9806    -0.0000
 23 H      0.9663     1.0000     0.0337     0.9799     0.9799    -0.0000
 24 H      0.9496     1.0000     0.0504     0.9852     0.9852    -0.0000
 25 H      0.9899     1.0000     0.0101     1.0081     1.0081     0.0000
 26 H      0.9663     1.0000     0.0337     0.9852     0.9852    -0.0000
 27 H      0.9627     1.0000     0.0373     0.9912     0.9912     0.0000
 28 H      0.9558     1.0000     0.0442     1.0057     1.0057    -0.0000
 29 H      0.8465     1.0000     0.1535     0.9981     0.9981     0.0000
 30 H      0.8505     1.0000     0.1495     0.9987     0.9987    -0.0000
 31 H      0.8540     1.0000     0.1460     1.0073     1.0073    -0.0000
 32 H      0.8501     1.0000     0.1499     0.9838     0.9838     0.0000
 33 H      0.9664     1.0000     0.0336     1.0233     1.0233     0.0000
 34 H      0.9536     1.0000     0.0464     0.9859     0.9859    -0.0000
 35 H      0.9707     1.0000     0.0293     0.9765     0.9765     0.0000
 36 H      0.9676     1.0000     0.0324     0.9837     0.9837    -0.0000
 37 H      0.9836     1.0000     0.0164     0.9865     0.9865     0.0000
 38 H      0.9674     1.0000     0.0326     0.9871     0.9871     0.0000
 39 H      0.9807     1.0000     0.0193     0.9850     0.9850    -0.0000
 40 H      0.9701     1.0000     0.0299     0.9897     0.9897     0.0000
 41 H      0.9797     1.0000     0.0203     0.9886     0.9886    -0.0000
 42 H      0.9821     1.0000     0.0179     0.9824     0.9824     0.0000

  Mayer bond orders larger than 0.100000
B(  0-C ,  1-O ) :   0.8687 B(  0-C , 22-H ) :   0.9846 B(  0-C , 23-H ) :   0.9849 
B(  0-C , 24-H ) :   0.9921 B(  1-O ,  2-C ) :   0.9902 B(  2-C ,  3-C ) :   1.3294 
B(  2-C , 18-C ) :   1.4069 B(  3-C ,  4-C ) :   1.4011 B(  3-C , 25-H ) :   1.0115 
B(  4-C ,  5-C ) :   1.0152 B(  4-C , 14-C ) :   1.3783 B(  5-C ,  6-C ) :   0.9869 
B(  5-C , 26-H ) :   0.9671 B(  5-C , 27-H ) :   0.9662 B(  6-C ,  7-C ) :   1.4274 
B(  6-C , 12-C ) :   1.3408 B(  7-C ,  8-N ) :   1.4712 B(  7-C , 28-H ) :   1.0066 
B(  8-N ,  9-C ) :   1.4489 B(  9-C , 10-N ) :   1.1815 B(  9-C , 11-N ) :   1.4248 
B( 10-N , 29-H ) :   0.9522 B( 10-N , 30-H ) :   0.9533 B( 11-N , 12-C ) :   1.4726 
B( 12-C , 13-N ) :   1.1468 B( 13-N , 31-H ) :   0.9523 B( 13-N , 32-H ) :   0.9487 
B( 14-C , 15-C ) :   1.3445 B( 14-C , 33-H ) :   1.0118 B( 15-C , 16-O ) :   1.0379 
B( 15-C , 18-C ) :   1.4407 B( 16-O , 17-C ) :   0.8736 B( 17-C , 34-H ) :   0.9921 
B( 17-C , 35-H ) :   0.9856 B( 17-C , 36-H ) :   0.9840 B( 18-C , 19-N ) :   1.0431 
B( 19-N , 20-C ) :   0.9292 B( 19-N , 21-C ) :   0.9339 B( 20-C , 37-H ) :   0.9816 
B( 20-C , 38-H ) :   0.9884 B( 20-C , 39-H ) :   0.9903 B( 21-C , 40-H ) :   0.9902 
B( 21-C , 41-H ) :   0.9791 B( 21-C , 42-H ) :   0.9903 

-------
TIMINGS
-------

Total SCF time: 0 days 0 hours 0 min 23 sec 

Total time                  ....      23.650 sec
Sum of individual times     ....      23.321 sec  ( 98.6%)

Fock matrix formation       ....      22.363 sec  ( 94.6%)
Diagonalization             ....       0.240 sec  (  1.0%)
Density matrix formation    ....       0.024 sec  (  0.1%)
Population analysis         ....       0.036 sec  (  0.2%)
Initial guess               ....       0.149 sec  (  0.6%)
Orbital Transformation      ....       0.000 sec  (  0.0%)
Orbital Orthonormalization  ....       0.000 sec  (  0.0%)
DIIS solution               ....       0.111 sec  (  0.5%)
SOSCF solution              ....       0.221 sec  (  0.9%)

Maximum memory used throughout the entire SCF-calculation: 241.4 MB

-------------------------   --------------------
FINAL SINGLE POINT ENERGY     -1001.441982590802
-------------------------   --------------------


                            ***************************************
                            *     ORCA property calculations      *
                            ***************************************

                                    ---------------------
                                    Active property flags
                                    ---------------------
   (+) Dipole Moment


------------------------------------------------------------------------------
                       ORCA ELECTRIC PROPERTIES CALCULATION
------------------------------------------------------------------------------

Dipole Moment Calculation                       ... on
Quadrupole Moment Calculation                   ... off
Polarizability Calculation                      ... off
GBWName                                         ... ./ZINC000000000011/ZINC000000000011.gbw
Electron density                                ... ./ZINC000000000011/ZINC000000000011.scfp
The origin for moment calculation is the CENTER OF MASS  = ( 0.668414,  0.061679 -0.095201)

-------------
DIPOLE MOMENT
-------------
                                X             Y             Z
Electronic contribution:     15.87655       1.17257      -0.93024
Nuclear contribution   :    -15.24209      -1.37859       1.55391
                        -----------------------------------------
Total Dipole Moment    :      0.63445      -0.20602       0.62367
                        -----------------------------------------
Magnitude (a.u.)       :      0.91320
Magnitude (Debye)      :      2.32118



--------------------
Rotational spectrum 
--------------------
 
Rotational constants in cm-1:     0.015608     0.005038     0.004440 
Rotational constants in MHz :   467.913626   151.045981   133.122622 

 Dipole components along the rotational axes: 
x,y,z [a.u.] :    -0.539783     0.258358     0.689802 
x,y,z [Debye]:    -1.372019     0.656693     1.753338 

 

Timings for individual modules:

Sum of individual times         ...       24.313 sec (=   0.405 min)
GTO integral calculation        ...        0.428 sec (=   0.007 min)   1.8 %
SCF iterations                  ...       23.885 sec (=   0.398 min)  98.2 %
                             ****ORCA TERMINATED NORMALLY****
TOTAL RUN TIME: 0 days 0 hours 0 minutes 24 seconds 687 msec
