
                                 *****************
                                 * O   R   C   A *
                                 *****************

                                            #,                                       
                                            ###                                      
                                            ####                                     
                                            #####                                    
                                            ######                                   
                                           ########,                                 
                                     ,,################,,,,,                         
                               ,,#################################,,                 
                          ,,##########################################,,             
                       ,#########################################, ''#####,          
                    ,#############################################,,   '####,        
                  ,##################################################,,,,####,       
                ,###########''''           ''''###############################       
              ,#####''   ,,,,##########,,,,          '''####'''          '####       
            ,##' ,,,,###########################,,,                        '##       
           ' ,,###''''                  '''############,,,                           
         ,,##''                                '''############,,,,        ,,,,,,###''
      ,#''                                            '''#######################'''  
     '                                                          ''''####''''         
             ,#######,   #######,   ,#######,      ##                                
            ,#'     '#,  ##    ##  ,#'     '#,    #''#        ######   ,####,        
            ##       ##  ##   ,#'  ##            #'  '#       #        #'  '#        
            ##       ##  #######   ##           ,######,      #####,   #    #        
            '#,     ,#'  ##    ##  '#,     ,#' ,#      #,         ##   #,  ,#        
             '#######'   ##     ##  '#######'  #'      '#     #####' # '####'        



                  #######################################################
                  #                        -***-                        #
                  #          Department of theory and spectroscopy      #
                  #    Directorship and core code : Frank Neese         #
                  #        Max Planck Institute fuer Kohlenforschung    #
                  #                Kaiser Wilhelm Platz 1               #
                  #                 D-45470 Muelheim/Ruhr               #
                  #                      Germany                        #
                  #                                                     #
                  #                  All rights reserved                #
                  #                        -***-                        #
                  #######################################################


                         Program Version 5.0.3 -  RELEASE  -


 With contributions from (in alphabetic order):
   Daniel Aravena         : Magnetic Suceptibility
   Michael Atanasov       : Ab Initio Ligand Field Theory (pilot matlab implementation)
   Alexander A. Auer      : GIAO ZORA, VPT2 properties, NMR spectrum
   Ute Becker             : Parallelization
   Giovanni Bistoni       : ED, misc. LED, open-shell LED, HFLD
   Martin Brehm           : Molecular dynamics
   Dmytro Bykov           : SCF Hessian
   Vijay G. Chilkuri      : MRCI spin determinant printing, contributions to CSF-ICE
   Dipayan Datta          : RHF DLPNO-CCSD density
   Achintya Kumar Dutta   : EOM-CC, STEOM-CC
   Dmitry Ganyushin       : Spin-Orbit,Spin-Spin,Magnetic field MRCI
   Miquel Garcia          : C-PCM and meta-GGA Hessian, CC/C-PCM, Gaussian charge scheme
   Yang Guo               : DLPNO-NEVPT2, F12-NEVPT2, CIM, IAO-localization
   Andreas Hansen         : Spin unrestricted coupled pair/coupled cluster methods
   Benjamin Helmich-Paris : MC-RPA, TRAH-SCF, COSX integrals
   Lee Huntington         : MR-EOM, pCC
   Robert Izsak           : Overlap fitted RIJCOSX, COSX-SCS-MP3, EOM
   Marcus Kettner         : VPT2
   Christian Kollmar      : KDIIS, OOCD, Brueckner-CCSD(T), CCSD density, CASPT2, CASPT2-K
   Simone Kossmann        : Meta GGA functionals, TD-DFT gradient, OOMP2, MP2 Hessian
   Martin Krupicka        : Initial AUTO-CI
   Lucas Lang             : DCDCAS
   Marvin Lechner         : AUTO-CI (C++ implementation), FIC-MRCC
   Dagmar Lenk            : GEPOL surface, SMD
   Dimitrios Liakos       : Extrapolation schemes; Compound Job, initial MDCI parallelization
   Dimitrios Manganas     : Further ROCIS development; embedding schemes
   Dimitrios Pantazis     : SARC Basis sets
   Anastasios Papadopoulos: AUTO-CI, single reference methods and gradients
   Taras Petrenko         : DFT Hessian,TD-DFT gradient, ASA, ECA, R-Raman, ABS, FL, XAS/XES, NRVS
   Peter Pinski           : DLPNO-MP2, DLPNO-MP2 Gradient
   Christoph Reimann      : Effective Core Potentials
   Marius Retegan         : Local ZFS, SOC
   Christoph Riplinger    : Optimizer, TS searches, QM/MM, DLPNO-CCSD(T), (RO)-DLPNO pert. Triples
   Tobias Risthaus        : Range-separated hybrids, TD-DFT gradient, RPA, STAB
   Michael Roemelt        : Original ROCIS implementation
   Masaaki Saitow         : Open-shell DLPNO-CCSD energy and density
   Barbara Sandhoefer     : DKH picture change effects
   Avijit Sen             : IP-ROCIS
   Kantharuban Sivalingam : CASSCF convergence, NEVPT2, FIC-MRCI
   Bernardo de Souza      : ESD, SOC TD-DFT
   Georgi Stoychev        : AutoAux, RI-MP2 NMR, DLPNO-MP2 response
   Willem Van den Heuvel  : Paramagnetic NMR
   Boris Wezisla          : Elementary symmetry handling
   Frank Wennmohs         : Technical directorship


 We gratefully acknowledge several colleagues who have allowed us to
 interface, adapt or use parts of their codes:
   Stefan Grimme, W. Hujo, H. Kruse, P. Pracht,  : VdW corrections, initial TS optimization,
                  C. Bannwarth, S. Ehlert          DFT functionals, gCP, sTDA/sTD-DF
   Ed Valeev, F. Pavosevic, A. Kumar             : LibInt (2-el integral package), F12 methods
   Garnet Chan, S. Sharma, J. Yang, R. Olivares  : DMRG
   Ulf Ekstrom                                   : XCFun DFT Library
   Mihaly Kallay                                 : mrcc  (arbitrary order and MRCC methods)
   Jiri Pittner, Ondrej Demel                    : Mk-CCSD
   Frank Weinhold                                : gennbo (NPA and NBO analysis)
   Christopher J. Cramer and Donald G. Truhlar   : smd solvation model
   Lars Goerigk                                  : TD-DFT with DH, B97 family of functionals
   V. Asgeirsson, H. Jonsson                     : NEB implementation
   FAccTs GmbH                                   : IRC, NEB, NEB-TS, DLPNO-Multilevel, CI-OPT
                                                   MM, QMMM, 2- and 3-layer-ONIOM, Crystal-QMMM,
                                                   LR-CPCM, SF, NACMEs, symmetry and pop. for TD-DFT,
                                                   nearIR, NL-DFT gradient (VV10), updates on ESD,
                                                   ML-optimized integration grids
   S Lehtola, MJT Oliveira, MAL Marques          : LibXC Library
   Liviu Ungur et al                             : ANISO software


 Your calculation uses the libint2 library for the computation of 2-el integrals
 For citations please refer to: http://libint.valeyev.net

 Your ORCA version has been built with support for libXC version: 5.1.0
 For citations please refer to: https://tddft.org/programs/libxc/

 This ORCA versions uses:
   CBLAS   interface :  Fast vector & matrix operations
   LAPACKE interface :  Fast linear algebra routines
   SCALAPACK package :  Parallel linear algebra routines
   Shared memory     :  Shared parallel matrices
   BLAS/LAPACK       :  OpenBLAS 0.3.15  USE64BITINT DYNAMIC_ARCH NO_AFFINITY Zen SINGLE_THREADED
        Core in use  :  Zen
   Copyright (c) 2011-2014, The OpenBLAS Project


================================================================================

----- Orbital basis set information -----
Your calculation utilizes the basis: def2-SVP
   F. Weigend and R. Ahlrichs, Phys. Chem. Chem. Phys. 7, 3297 (2005).

================================================================================
                                        WARNINGS
                       Please study these warnings very carefully!
================================================================================


INFO   : the flag for use of the SHARK integral package has been found!

================================================================================
                                       INPUT FILE
================================================================================
NAME = ./ZINC000000000199/ZINC000000000199.inp
|  1> !RHF def2-SVP TightSCF PAL16 
|  2> *xyz 0 1
|  3> O -1.724070787486553 0.26150839570153556 -2.36444816575723
|  4> C -1.2874667736737795 0.31679568688051574 -0.9890907859190213
|  5> C 0.2653603080049731 0.21648776219862773 -1.012529959918772
|  6> C 0.9420829443488803 0.23991085507942206 0.3661403118623807
|  7> N 2.401835807462253 0.0716544060445819 0.2638860626208155
|  8> C 3.0713952679581786 0.6216551904426955 1.4583169990801996
|  9> C 4.4783658892843325 0.05870289510215266 1.7052303554951442
| 10> C 5.151217438628381 -0.35184463807866323 0.4044973472271212
| 11> C 4.2948011744143475 -1.3661334618154721 -0.35659761970110027
| 12> C 2.8100098978186714 -1.3141341371815594 0.02555691411943017
| 13> C -1.7100808301629373 1.6938730809898788 -0.45366323767908456
| 14> C -1.710519175829464 2.811707062781502 -1.3109896181960976
| 15> C -2.0597203364318046 4.084316781071075 -0.8520534131329366
| 16> C -2.4102085400931452 4.271389937993322 0.480364629304402
| 17> C -2.407976808707792 3.18696305599709 1.351759943727358
| 18> C -2.0580844652906203 1.913237371197045 0.8911628973536293
| 19> C -1.9511844063216583 -0.8861498307081578 -0.2517801761136184
| 20> C -3.4810744418994646 -0.9526920717105916 -0.3823544449352144
| 21> C -3.8422331228761424 -2.3678213553598004 0.060393919120830517
| 22> C -2.5896316278380054 -3.212830299135418 -0.1587550461615872
| 23> C -1.5541028816715141 -2.275738453828101 -0.771332604932904
| 24> H -1.2265117921586757 -0.4398866899718028 -2.8143186768603607
| 25> H 0.5469215782789882 -0.6901265777949678 -1.5607534559140839
| 26> H 0.6721166422211404 1.0369153985951247 -1.6215600449933112
| 27> H 0.7337220170772408 1.215782955118521 0.8205385541173982
| 28> H 0.5234558651165372 -0.5212552873750841 1.0337556733339393
| 29> H 3.141003083731217 1.7091449899306344 1.3335869492313936
| 30> H 2.478645020797243 0.4419139921413372 2.3651549969811536
| 31> H 4.4106433751151055 -0.817194951839574 2.363253372962232
| 32> H 5.088755511297325 0.8027698979731319 2.2292853483473203
| 33> H 6.145389436617967 -0.7696864307381704 0.598232344446554
| 34> H 5.301039337082183 0.538128245975715 -0.21990222435843687
| 35> H 4.413109884324219 -1.188390942697734 -1.4326443262002981
| 36> H 4.668800653643068 -2.3792337674967516 -0.1657306199311525
| 37> H 2.2441740052943673 -1.7738041988963618 -0.7913499721251547
| 38> H 2.62476698362515 -1.9303911834126637 0.9154349329379055
| 39> H -1.4386846490363927 2.6933590829372545 -2.358607988474911
| 40> H -2.057062554954449 4.9259316735038405 -1.5394956010039598
| 41> H -2.6829152809016388 5.260068188533565 0.8386203832939537
| 42> H -2.677560991275962 3.330130724253166 2.3947959449615928
| 43> H -2.059785261057728 1.1021177956882844 1.6130356671782138
| 44> H -1.6996176536087486 -0.8593255862391055 0.8159486378396568
| 45> H -3.9923796910656137 -0.20349407588264998 0.22878025038874727
| 46> H -3.7997168730693955 -0.807898784539793 -1.42122196077611
| 47> H -4.11839668655339 -2.3794231417980445 1.120942368125462
| 48> H -4.696712690814048 -2.753077873242743 -0.5053882490405289
| 49> H -2.2307277146708486 -3.5987909074218596 0.802540545917467
| 50> H -2.7842013774984427 -4.073692432836098 -0.8060927040203144
| 51> H -0.539223995268946 -2.559692374133397 -0.47700907361508627
| 52> H -1.6177607119236868 -2.331755971994745 -1.8635453802129136
| 53> *
| 54> 
| 55>                          ****END OF INPUT****
================================================================================

                       ****************************
                       * Single Point Calculation *
                       ****************************

---------------------------------
CARTESIAN COORDINATES (ANGSTROEM)
---------------------------------
  O     -1.724071    0.261508   -2.364448
  C     -1.287467    0.316796   -0.989091
  C      0.265360    0.216488   -1.012530
  C      0.942083    0.239911    0.366140
  N      2.401836    0.071654    0.263886
  C      3.071395    0.621655    1.458317
  C      4.478366    0.058703    1.705230
  C      5.151217   -0.351845    0.404497
  C      4.294801   -1.366133   -0.356598
  C      2.810010   -1.314134    0.025557
  C     -1.710081    1.693873   -0.453663
  C     -1.710519    2.811707   -1.310990
  C     -2.059720    4.084317   -0.852053
  C     -2.410209    4.271390    0.480365
  C     -2.407977    3.186963    1.351760
  C     -2.058084    1.913237    0.891163
  C     -1.951184   -0.886150   -0.251780
  C     -3.481074   -0.952692   -0.382354
  C     -3.842233   -2.367821    0.060394
  C     -2.589632   -3.212830   -0.158755
  C     -1.554103   -2.275738   -0.771333
  H     -1.226512   -0.439887   -2.814319
  H      0.546922   -0.690127   -1.560753
  H      0.672117    1.036915   -1.621560
  H      0.733722    1.215783    0.820539
  H      0.523456   -0.521255    1.033756
  H      3.141003    1.709145    1.333587
  H      2.478645    0.441914    2.365155
  H      4.410643   -0.817195    2.363253
  H      5.088756    0.802770    2.229285
  H      6.145389   -0.769686    0.598232
  H      5.301039    0.538128   -0.219902
  H      4.413110   -1.188391   -1.432644
  H      4.668801   -2.379234   -0.165731
  H      2.244174   -1.773804   -0.791350
  H      2.624767   -1.930391    0.915435
  H     -1.438685    2.693359   -2.358608
  H     -2.057063    4.925932   -1.539496
  H     -2.682915    5.260068    0.838620
  H     -2.677561    3.330131    2.394796
  H     -2.059785    1.102118    1.613036
  H     -1.699618   -0.859326    0.815949
  H     -3.992380   -0.203494    0.228780
  H     -3.799717   -0.807899   -1.421222
  H     -4.118397   -2.379423    1.120942
  H     -4.696713   -2.753078   -0.505388
  H     -2.230728   -3.598791    0.802541
  H     -2.784201   -4.073692   -0.806093
  H     -0.539224   -2.559692   -0.477009
  H     -1.617761   -2.331756   -1.863545

----------------------------
CARTESIAN COORDINATES (A.U.)
----------------------------
  NO LB      ZA    FRAG     MASS         X           Y           Z
   0 O     8.0000    0    15.999   -3.258022    0.494179   -4.468159
   1 C     6.0000    0    12.011   -2.432960    0.598657   -1.869111
   2 C     6.0000    0    12.011    0.501458    0.409103   -1.913404
   3 C     6.0000    0    12.011    1.780279    0.453366    0.691905
   4 N     7.0000    0    14.007    4.538812    0.135407    0.498672
   5 C     6.0000    0    12.011    5.804096    1.174758    2.755820
   6 C     6.0000    0    12.011    8.462885    0.110932    3.222418
   7 C     6.0000    0    12.011    9.734390   -0.664890    0.764389
   8 C     6.0000    0    12.011    8.115998   -2.581618   -0.673872
   9 C     6.0000    0    12.011    5.310149   -2.483354    0.048296
  10 C     6.0000    0    12.011   -3.231584    3.200956   -0.857299
  11 C     6.0000    0    12.011   -3.232413    5.313356   -2.477411
  12 C     6.0000    0    12.011   -3.892307    7.718240   -1.610148
  13 C     6.0000    0    12.011   -4.554634    8.071757    0.907758
  14 C     6.0000    0    12.011   -4.550417    6.022487    2.554456
  15 C     6.0000    0    12.011   -3.889216    3.615495    1.684054
  16 C     6.0000    0    12.011   -3.687204   -1.674580   -0.475796
  17 C     6.0000    0    12.011   -6.578277   -1.800327   -0.722545
  18 C     6.0000    0    12.011   -7.260768   -4.474534    0.114128
  19 C     6.0000    0    12.011   -4.893695   -6.071369   -0.300004
  20 C     6.0000    0    12.011   -2.936829   -4.300522   -1.457607
  21 H     1.0000    0     1.008   -2.317771   -0.831265   -5.318292
  22 H     1.0000    0     1.008    1.033532   -1.304150   -2.949397
  23 H     1.0000    0     1.008    1.270116    1.959486   -3.064304
  24 H     1.0000    0     1.008    1.386534    2.297497    1.550593
  25 H     1.0000    0     1.008    0.989188   -0.985030    1.953515
  26 H     1.0000    0     1.008    5.935636    3.229816    2.520114
  27 H     1.0000    0     1.008    4.683960    0.835096    4.469495
  28 H     1.0000    0     1.008    8.334908   -1.544275    4.465902
  29 H     1.0000    0     1.008    9.616354    1.517015    4.212739
  30 H     1.0000    0     1.008   11.613103   -1.454497    1.130495
  31 H     1.0000    0     1.008   10.017513    1.016915   -0.415555
  32 H     1.0000    0     1.008    8.339569   -2.245733   -2.707305
  33 H     1.0000    0     1.008    8.822755   -4.496100   -0.313185
  34 H     1.0000    0     1.008    4.240874   -3.352004   -1.495435
  35 H     1.0000    0     1.008    4.960091   -3.647911    1.729921
  36 H     1.0000    0     1.008   -2.718720    5.089711   -4.457123
  37 H     1.0000    0     1.008   -3.887285    9.308662   -2.909225
  38 H     1.0000    0     1.008   -5.069975    9.940088    1.584763
  39 H     1.0000    0     1.008   -5.059857    6.293035    4.525508
  40 H     1.0000    0     1.008   -3.892430    2.082701    3.048196
  41 H     1.0000    0     1.008   -3.211812   -1.623890    1.541919
  42 H     1.0000    0     1.008   -7.544504   -0.384548    0.432332
  43 H     1.0000    0     1.008   -7.180424   -1.526707   -2.685720
  44 H     1.0000    0     1.008   -7.782642   -4.496458    2.118274
  45 H     1.0000    0     1.008   -8.875501   -5.202563   -0.955045
  46 H     1.0000    0     1.008   -4.215464   -6.800729    1.516582
  47 H     1.0000    0     1.008   -5.261378   -7.698163   -1.523294
  48 H     1.0000    0     1.008   -1.018986   -4.837118   -0.901417
  49 H     1.0000    0     1.008   -3.057125   -4.406380   -3.521590

--------------------------------
INTERNAL COORDINATES (ANGSTROEM)
--------------------------------
 O      0   0   0     0.000000000000     0.00000000     0.00000000
 C      1   0   0     1.444052516953     0.00000000     0.00000000
 C      2   1   0     1.556240026547   106.55111464     0.00000000
 C      3   2   1     1.535979780503   115.15777898   180.68858809
 N      4   3   2     1.472971345783   111.87445619   177.07050375
 C      5   4   3     1.475627322853   110.54275173   157.25199103
 C      6   5   4     1.535398261586   114.16104143   158.55378030
 C      7   6   5     1.520915790980   111.52043384    29.01302180
 C      8   7   6     1.530194819051   110.89785671   303.57786032
 C      5   4   3     1.464177843570   113.30872132   282.54627550
 C      2   1   3     1.536758747990   106.43938281   117.04441965
 C     11   2   1     1.408744663069   119.94020140   326.19173067
 C     12  11   2     1.397175502923   121.52890372   181.45287516
 C     13  12  11     1.390387063648   120.02212286     0.37461931
 C     14  13  12     1.391156510612   119.66844483     0.14676505
 C     15  14  13     1.398910794593   120.25970191   359.85691945
 C      2   1   3     1.559238900716   106.98577512   239.49539172
 C     17   2   1     1.536893304845   114.64258917   305.54537820
 C     18  17   2     1.526123388249   104.54097760   164.69720878
 C     19  18  17     1.526786458355   106.10563365   336.09014715
 C     20  19  18     1.525028582089   105.94132310   357.92763079
 H      1   2   3     0.970517128545   108.30952868    44.00183622
 H      3   2   1     1.096255130871   108.48842955   304.93915231
 H      3   2   1     1.099759003834   109.22660226    57.90794959
 H      4   3   2     1.096457201268   107.56747681   296.24046814
 H      4   3   2     1.095597005636   111.59314150    53.37351223
 H      6   5   4     1.096830386770   107.83620197   279.68424873
 H      6   5   4     1.098187100777   111.25302674    36.58909485
 H      7   6   5     1.097623646210   109.41773970   268.41801193
 H      7   6   5     1.095830657974   109.77768159   151.48391851
 H      8   7   6     1.095674666325   110.67926729   181.12877930
 H      8   7   6     1.097439365343   109.15250997    64.08369504
 H      9   8   7     1.097025919708   108.67004730   145.41600306
 H      9   8   7     1.096666791435   109.56677750   261.38036516
 H     10   5   4     1.094898937665   112.00758702    48.81555776
 H     10   5   4     1.098166914756   110.62194516   290.33388923
 H     12  11   2     1.088762831858   119.95014454     1.73413064
 H     13  12  11     1.086691976888   119.80312289   180.41882305
 H     14  13  12     1.086370486915   120.11589149   180.05897794
 H     15  14  13     1.086782734771   119.87307926   179.75833059
 H     16  15  14     1.085826023953   117.44355222   179.25812258
 H     17   2   1     1.097292208716   110.10103525   183.31353617
 H     18  17   2     1.093716741486   112.84452607   285.73330103
 H     18  17   2     1.096240762981   111.35457337    46.92666820
 H     19  18  17     1.095976244285   110.49845959    95.13530943
 H     19  18  17     1.094836690289   111.16575496   214.33380480
 H     20  19  18     1.096296869186   109.72919827   116.93971947
 H     20  19  18     1.094525944875   111.98422477   236.17280426
 H     21  20  19     1.094182491182   111.24129336   148.78454172
 H     21  20  19     1.095499442345   109.24449177   267.90368571

---------------------------
INTERNAL COORDINATES (A.U.)
---------------------------
 O      0   0   0     0.000000000000     0.00000000     0.00000000
 C      1   0   0     2.728863780041     0.00000000     0.00000000
 C      2   1   0     2.940867448820   106.55111464     0.00000000
 C      3   2   1     2.902581132391   115.15777898   180.68858809
 N      4   3   2     2.783512446643   111.87445619   177.07050375
 C      5   4   3     2.788531515923   110.54275173   157.25199103
 C      6   5   4     2.901482220896   114.16104143   158.55378030
 C      7   6   5     2.874114317709   111.52043384    29.01302180
 C      8   7   6     2.891649139552   110.89785671   303.57786032
 C      5   4   3     2.766895135702   113.30872132   282.54627550
 C      2   1   3     2.904053167609   106.43938281   117.04441965
 C     11   2   1     2.662141605824   119.94020140   326.19173067
 C     12  11   2     2.640279061549   121.52890372   181.45287516
 C     13  12  11     2.627450770441   120.02212286     0.37461931
 C     14  13  12     2.628904814479   119.66844483     0.14676505
 C     15  14  13     2.643558287567   120.25970191   359.85691945
 C      2   1   3     2.946534499710   106.98577512   239.49539172
 C     17   2   1     2.904307443213   114.64258917   305.54537820
 C     18  17   2     2.883955250363   104.54097760   164.69720878
 C     19  18  17     2.885208271271   106.10563365   336.09014715
 C     20  19  18     2.881886366551   105.94132310   357.92763079
 H      1   2   3     1.834011581229   108.30952868    44.00183622
 H      3   2   1     2.071621970253   108.48842955   304.93915231
 H      3   2   1     2.078243330560   109.22660226    57.90794959
 H      4   3   2     2.072003827962   107.56747681   296.24046814
 H      4   3   2     2.070378293796   111.59314150    53.37351223
 H      6   5   4     2.072709046358   107.83620197   279.68424873
 H      6   5   4     2.075272864274   111.25302674    36.58909485
 H      7   6   5     2.074208089453   109.41773970   268.41801193
 H      7   6   5     2.070819832726   109.77768159   151.48391851
 H      8   7   6     2.070525051230   110.67926729   181.12877930
 H      8   7   6     2.073859849083   109.15250997    64.08369504
 H      9   8   7     2.073078550061   108.67004730   145.41600306
 H      9   8   7     2.072399895978   109.56677750   261.38036516
 H     10   5   4     2.069059136508   112.00758702    48.81555776
 H     10   5   4     2.075234718222   110.62194516   290.33388923
 H     12  11   2     2.057463577004   119.95014454     1.73413064
 H     13  12  11     2.053550228247   119.80312289   180.41882305
 H     14  13  12     2.052942700244   120.11589149   180.05897794
 H     15  14  13     2.053721735790   119.87307926   179.75833059
 H     16  15  14     2.051913814356   117.44355222   179.25812258
 H     17   2   1     2.073581763358   110.10103525   183.31353617
 H     18  17   2     2.066825109493   112.84452607   285.73330103
 H     18  17   2     2.071594818875   111.35457337    46.92666820
 H     19  18  17     2.071094950983   110.49845959    95.13530943
 H     19  18  17     2.068941506016   111.16575496   214.33380480
 H     20  19  18     2.071700844236   109.72919827   116.93971947
 H     20  19  18     2.068354282285   111.98422477   236.17280426
 H     21  20  19     2.067705248866   111.24129336   148.78454172
 H     21  20  19     2.070193925896   109.24449177   267.90368571

---------------------
BASIS SET INFORMATION
---------------------
There are 4 groups of distinct atoms

 Group   1 Type O   : 7s4p1d contracted to 3s2p1d pattern {511/31/1}
 Group   2 Type C   : 7s4p1d contracted to 3s2p1d pattern {511/31/1}
 Group   3 Type N   : 7s4p1d contracted to 3s2p1d pattern {511/31/1}
 Group   4 Type H   : 4s1p contracted to 2s1p pattern {31/1}

Atom   0O    basis set group =>   1
Atom   1C    basis set group =>   2
Atom   2C    basis set group =>   2
Atom   3C    basis set group =>   2
Atom   4N    basis set group =>   3
Atom   5C    basis set group =>   2
Atom   6C    basis set group =>   2
Atom   7C    basis set group =>   2
Atom   8C    basis set group =>   2
Atom   9C    basis set group =>   2
Atom  10C    basis set group =>   2
Atom  11C    basis set group =>   2
Atom  12C    basis set group =>   2
Atom  13C    basis set group =>   2
Atom  14C    basis set group =>   2
Atom  15C    basis set group =>   2
Atom  16C    basis set group =>   2
Atom  17C    basis set group =>   2
Atom  18C    basis set group =>   2
Atom  19C    basis set group =>   2
Atom  20C    basis set group =>   2
Atom  21H    basis set group =>   4
Atom  22H    basis set group =>   4
Atom  23H    basis set group =>   4
Atom  24H    basis set group =>   4
Atom  25H    basis set group =>   4
Atom  26H    basis set group =>   4
Atom  27H    basis set group =>   4
Atom  28H    basis set group =>   4
Atom  29H    basis set group =>   4
Atom  30H    basis set group =>   4
Atom  31H    basis set group =>   4
Atom  32H    basis set group =>   4
Atom  33H    basis set group =>   4
Atom  34H    basis set group =>   4
Atom  35H    basis set group =>   4
Atom  36H    basis set group =>   4
Atom  37H    basis set group =>   4
Atom  38H    basis set group =>   4
Atom  39H    basis set group =>   4
Atom  40H    basis set group =>   4
Atom  41H    basis set group =>   4
Atom  42H    basis set group =>   4
Atom  43H    basis set group =>   4
Atom  44H    basis set group =>   4
Atom  45H    basis set group =>   4
Atom  46H    basis set group =>   4
Atom  47H    basis set group =>   4
Atom  48H    basis set group =>   4
Atom  49H    basis set group =>   4


           ************************************************************
           *        Program running with 16 parallel MPI-processes    *
           *              working on a common directory               *
           ************************************************************
------------------------------------------------------------------------------
                           ORCA GTO INTEGRAL CALCULATION
------------------------------------------------------------------------------
------------------------------------------------------------------------------
                   ___                                                        
                  /   \      - P O W E R E D   B Y -                         
                 /     \                                                     
                 |  |  |   _    _      __       _____    __    __             
                 |  |  |  | |  | |    /  \     |  _  \  |  |  /  |          
                  \  \/   | |  | |   /    \    | | | |  |  | /  /          
                 / \  \   | |__| |  /  /\  \   | |_| |  |  |/  /          
                |  |  |   |  __  | /  /__\  \  |    /   |      \           
                |  |  |   | |  | | |   __   |  |    \   |  |\   \          
                \     /   | |  | | |  |  |  |  | |\  \  |  | \   \       
                 \___/    |_|  |_| |__|  |__|  |_| \__\ |__|  \__/        
                                                                              
                      - O R C A' S   B I G   F R I E N D -                    
                                      &                                       
                       - I N T E G R A L  F E E D E R -                       
                                                                              
 v1 FN, 2020, v2 2021                                                         
------------------------------------------------------------------------------


Reading SHARK input file ./ZINC000000000199/ZINC000000000199.SHARKINP.tmp ... ok
----------------------
SHARK INTEGRAL PACKAGE
----------------------

Number of atoms                             ...     50
Number of basis functions                   ...    439
Number of shells                            ...    213
Maximum angular momentum                    ...      2
Integral batch strategy                     ... SHARK/LIBINT Hybrid
RI-J (if used) integral strategy            ... SPLIT-RIJ (Revised 2003 algorithm where possible)
Printlevel                                  ...      1
Contraction scheme used                     ... SEGMENTED contraction
Coulomb Range Separation                    ... NOT USED
Exchange Range Separation                   ... NOT USED
Finite Nucleus Model                        ... NOT USED
Auxiliary Coulomb fitting basis             ... NOT available
Auxiliary J/K fitting basis                 ... NOT available
Auxiliary Correlation fitting basis         ... NOT available
Auxiliary 'external' fitting basis          ... NOT available
Integral threshold                          ...     2.500000e-11
Primitive cut-off                           ...     2.500000e-12
Primitive pair pre-selection threshold      ...     2.500000e-12

Calculating pre-screening integrals         ... done (  0.0 sec) Dimension = 213
Organizing shell pair data                  ... done (  0.1 sec)
Shell pair information
Total number of shell pairs                 ...     22791
Shell pairs after pre-screening             ...     17015
Total number of primitive shell pairs       ...     79363
Primitive shell pairs kept                  ...     38326
          la=0 lb=0:   5795 shell pairs
          la=1 lb=0:   6492 shell pairs
          la=1 lb=1:   1847 shell pairs
          la=2 lb=0:   1790 shell pairs
          la=2 lb=1:    960 shell pairs
          la=2 lb=2:    131 shell pairs

Calculating one electron integrals          ... done (  0.0 sec)
Calculating Nuclear repulsion               ... done (  0.0 sec) ENN=   1746.394081501687 Eh

SHARK setup successfully completed in   0.3 seconds

Maximum memory used throughout the entire GTOINT-calculation: 24.6 MB


           ************************************************************
           *        Program running with 16 parallel MPI-processes    *
           *              working on a common directory               *
           ************************************************************
-------------------------------------------------------------------------------
                                 ORCA SCF
-------------------------------------------------------------------------------

------------
SCF SETTINGS
------------
Hamiltonian:
 Ab initio Hamiltonian  Method          .... Hartree-Fock(GTOs)


General Settings:
 Integral files         IntName         .... ./ZINC000000000199/ZINC000000000199
 Hartree-Fock type      HFTyp           .... RHF
 Total Charge           Charge          ....    0
 Multiplicity           Mult            ....    1
 Number of Electrons    NEL             ....  158
 Basis Dimension        Dim             ....  439
 Nuclear Repulsion      ENuc            ....   1746.3940815017 Eh

Convergence Acceleration:
 DIIS                   CNVDIIS         .... on
   Start iteration      DIISMaxIt       ....    12
   Startup error        DIISStart       ....  0.200000
   # of expansion vecs  DIISMaxEq       ....     5
   Bias factor          DIISBfac        ....   1.050
   Max. coefficient     DIISMaxC        ....  10.000
 Trust-Rad. Augm. Hess. CNVTRAH         .... auto
   Auto Start mean grad. ratio tolernc. ....  1.125000
   Auto Start start iteration           ....    20
   Auto Start num. interpolation iter.  ....    10
   Max. Number of Micro iterations      ....    16
   Max. Number of Macro iterations      .... Maxiter - #DIIS iter
   Number of Davidson start vectors     ....     2
   Converg. threshold I  (grad. norm)   ....   1.000e-05
   Converg. threshold II (energy diff.) ....   1.000e-08
   Grad. Scal. Fac. for Micro threshold ....   0.100
   Minimum threshold for Micro iter.    ....   0.010
   NR start threshold (gradient norm)   ....   0.001
   Initial trust radius                 ....   0.400
   Minimum AH scaling param. (alpha)    ....   1.000
   Maximum AH scaling param. (alpha)    .... 1000.000
   Orbital update algorithm             .... Taylor
   White noise on init. David. guess    .... on
   Maximum white noise                  ....   0.010
   Quad. conv. algorithm                .... NR
 SOSCF                  CNVSOSCF        .... on
   Start iteration      SOSCFMaxIt      ....   150
   Startup grad/error   SOSCFStart      ....  0.003300
 Level Shifting         CNVShift        .... on
   Level shift para.    LevelShift      ....    0.2500
   Turn off err/grad.   ShiftErr        ....    0.0010
 Zerner damping         CNVZerner       .... off
 Static damping         CNVDamp         .... on
   Fraction old density DampFac         ....    0.7000
   Max. Damping (<1)    DampMax         ....    0.9800
   Min. Damping (>=0)   DampMin         ....    0.0000
   Turn off err/grad.   DampErr         ....    0.1000
 Fernandez-Rico         CNVRico         .... off

SCF Procedure:
 Maximum # iterations   MaxIter         ....   125
 SCF integral mode      SCFMode         .... Direct
   Integral package                     .... SHARK and LIBINT hybrid scheme
 Reset frequency        DirectResetFreq ....    20
 Integral Threshold     Thresh          ....  2.500e-11 Eh
 Primitive CutOff       TCut            ....  2.500e-12 Eh

Convergence Tolerance:
 Convergence Check Mode ConvCheckMode   .... Total+1el-Energy
 Convergence forced     ConvForced      .... 0
 Energy Change          TolE            ....  1.000e-08 Eh
 1-El. energy change                    ....  1.000e-05 Eh
 Orbital Gradient       TolG            ....  1.000e-05
 Orbital Rotation angle TolX            ....  1.000e-05
 DIIS Error             TolErr          ....  5.000e-07


Diagonalization of the overlap matrix:
Smallest eigenvalue                        ... 2.772e-04
Time for diagonalization                   ...    0.031 sec
Threshold for overlap eigenvalues          ... 1.000e-08
Number of eigenvalues below threshold      ... 0
Time for construction of square roots      ...    0.021 sec
Total time needed                          ...    0.053 sec

Time for model grid setup =    0.216 sec

------------------------------
INITIAL GUESS: MODEL POTENTIAL
------------------------------
Loading Hartree-Fock densities                     ... done
Calculating cut-offs                               ... done
Initializing the effective Hamiltonian             ... done
Setting up the integral package (SHARK)            ... done
Starting the Coulomb interaction                   ... done (   0.1 sec)
Reading the grid                                   ... done
Mapping shells                                     ... done
Starting the XC term evaluation                    ... done (   0.0 sec)
Transforming the Hamiltonian                       ... done (   0.0 sec)
Diagonalizing the Hamiltonian                      ... done (   0.0 sec)
Back transforming the eigenvectors                 ... done (   0.0 sec)
Now organizing SCF variables                       ... done
                      ------------------
                      INITIAL GUESS DONE (   0.4 sec)
                      ------------------
--------------
SCF ITERATIONS
--------------
ITER       Energy         Delta-E        Max-DP      RMS-DP      [F,P]     Damp
               ***  Starting incremental Fock matrix formation  ***
  0   -864.2171026884   0.000000000000 0.06157886  0.00164884  0.2091916 0.7000
  1   -864.5021889006  -0.285086212245 0.04738366  0.00127633  0.1268471 0.7000
                               ***Turning on DIIS***
  2   -864.6758856966  -0.173696796004 0.11975044  0.00292217  0.0717406 0.0000
  3   -863.3095494363   1.366336260316 0.03711471  0.00067193  0.0382142 0.0000
  4   -865.0385787036  -1.729029267243 0.00909640  0.00022567  0.0048792 0.0000
                      *** Initiating the SOSCF procedure ***
                           *** Shutting down DIIS ***
                      *** Re-Reading the Fockian *** 
                      *** Removing any level shift *** 
ITER      Energy       Delta-E        Grad      Rot      Max-DP    RMS-DP
  5   -865.03323501   0.0053436964  0.000724  0.000724  0.004914  0.000098
               *** Restarting incremental Fock matrix formation ***
  6   -865.03666692  -0.0034319161  0.000403  0.000879  0.002298  0.000040
  7   -865.03669114  -0.0000242148  0.000172  0.000404  0.001167  0.000024
  8   -865.03669580  -0.0000046598  0.000120  0.000190  0.000325  0.000005
  9   -865.03669620  -0.0000004062  0.000053  0.000127  0.000101  0.000002
 10   -865.03669629  -0.0000000850  0.000025  0.000121  0.000092  0.000001
 11   -865.03669632  -0.0000000316  0.000010  0.000034  0.000025  0.000000
                  ***Gradient check signals convergence***
              ***Rediagonalizing the Fockian in SOSCF/NRSCF***

               *****************************************************
               *                     SUCCESS                       *
               *           SCF CONVERGED AFTER  12 CYCLES          *
               *****************************************************


----------------
TOTAL SCF ENERGY
----------------

Total Energy       :         -865.03669632 Eh          -23538.84520 eV

Components:
Nuclear Repulsion  :         1746.39408150 Eh           47521.79892 eV
Electronic Energy  :        -2611.43077782 Eh          -71060.64412 eV
One Electron Energy:        -4645.60321072 Eh         -126413.29009 eV
Two Electron Energy:         2034.17243290 Eh           55352.64597 eV

Virial components:
Potential Energy   :        -1725.56991198 Eh          -46955.14446 eV
Kinetic Energy     :          860.53321566 Eh           23416.29926 eV
Virial Ratio       :            2.00523336


---------------
SCF CONVERGENCE
---------------

  Last Energy change         ...    5.0591e-09  Tolerance :   1.0000e-08
  Last MAX-Density change    ...    7.5043e-06  Tolerance :   1.0000e-07
  Last RMS-Density change    ...    1.5807e-07  Tolerance :   5.0000e-09
  Last Orbital Gradient      ...    1.6531e-06  Tolerance :   1.0000e-05
  Last Orbital Rotation      ...    4.6569e-06  Tolerance :   1.0000e-05

             **** THE GBW FILE WAS UPDATED (./ZINC000000000199/ZINC000000000199.gbw) ****
             **** DENSITY ./ZINC000000000199/ZINC000000000199.scfp WAS UPDATED ****
             **** ENERGY FILE WAS UPDATED (./ZINC000000000199/ZINC000000000199.en.tmp) ****
             **** THE GBW FILE WAS UPDATED (./ZINC000000000199/ZINC000000000199.gbw) ****
             **** DENSITY ./ZINC000000000199/ZINC000000000199.scfp WAS UPDATED ****
----------------
ORBITAL ENERGIES
----------------

  NO   OCC          E(Eh)            E(eV) 
   0   2.0000     -20.545268      -559.0652 
   1   2.0000     -15.539689      -422.8564 
   2   2.0000     -11.295529      -307.3670 
   3   2.0000     -11.250846      -306.1511 
   4   2.0000     -11.248689      -306.0924 
   5   2.0000     -11.247328      -306.0554 
   6   2.0000     -11.240770      -305.8769 
   7   2.0000     -11.235756      -305.7405 
   8   2.0000     -11.233789      -305.6869 
   9   2.0000     -11.232024      -305.6389 
  10   2.0000     -11.230878      -305.6077 
  11   2.0000     -11.229637      -305.5740 
  12   2.0000     -11.227298      -305.5103 
  13   2.0000     -11.225774      -305.4688 
  14   2.0000     -11.222788      -305.3876 
  15   2.0000     -11.221946      -305.3647 
  16   2.0000     -11.218009      -305.2575 
  17   2.0000     -11.217477      -305.2431 
  18   2.0000     -11.216923      -305.2280 
  19   2.0000     -11.211918      -305.0918 
  20   2.0000     -11.208287      -304.9930 
  21   2.0000      -1.337917       -36.4066 
  22   2.0000      -1.215176       -33.0666 
  23   2.0000      -1.138121       -30.9698 
  24   2.0000      -1.120402       -30.4877 
  25   2.0000      -1.069074       -29.0910 
  26   2.0000      -1.040361       -28.3097 
  27   2.0000      -1.002052       -27.2672 
  28   2.0000      -0.996736       -27.1226 
  29   2.0000      -0.990771       -26.9602 
  30   2.0000      -0.960372       -26.1330 
  31   2.0000      -0.953110       -25.9354 
  32   2.0000      -0.896435       -24.3932 
  33   2.0000      -0.856242       -23.2995 
  34   2.0000      -0.839832       -22.8530 
  35   2.0000      -0.818345       -22.2683 
  36   2.0000      -0.810529       -22.0556 
  37   2.0000      -0.788817       -21.4648 
  38   2.0000      -0.760229       -20.6869 
  39   2.0000      -0.748208       -20.3598 
  40   2.0000      -0.720688       -19.6109 
  41   2.0000      -0.698251       -19.0004 
  42   2.0000      -0.678923       -18.4744 
  43   2.0000      -0.669749       -18.2248 
  44   2.0000      -0.657865       -17.9014 
  45   2.0000      -0.656679       -17.8692 
  46   2.0000      -0.640592       -17.4314 
  47   2.0000      -0.628329       -17.0977 
  48   2.0000      -0.622823       -16.9479 
  49   2.0000      -0.609880       -16.5957 
  50   2.0000      -0.606946       -16.5158 
  51   2.0000      -0.590698       -16.0737 
  52   2.0000      -0.581362       -15.8197 
  53   2.0000      -0.577374       -15.7111 
  54   2.0000      -0.575510       -15.6604 
  55   2.0000      -0.562881       -15.3168 
  56   2.0000      -0.555232       -15.1086 
  57   2.0000      -0.551150       -14.9976 
  58   2.0000      -0.530813       -14.4442 
  59   2.0000      -0.520145       -14.1539 
  60   2.0000      -0.512526       -13.9465 
  61   2.0000      -0.506426       -13.7806 
  62   2.0000      -0.501602       -13.6493 
  63   2.0000      -0.495585       -13.4856 
  64   2.0000      -0.492061       -13.3897 
  65   2.0000      -0.484568       -13.1858 
  66   2.0000      -0.480321       -13.0702 
  67   2.0000      -0.472120       -12.8470 
  68   2.0000      -0.470831       -12.8120 
  69   2.0000      -0.467312       -12.7162 
  70   2.0000      -0.458726       -12.4826 
  71   2.0000      -0.449190       -12.2231 
  72   2.0000      -0.446179       -12.1411 
  73   2.0000      -0.445226       -12.1152 
  74   2.0000      -0.439116       -11.9489 
  75   2.0000      -0.424450       -11.5499 
  76   2.0000      -0.347709        -9.4617 
  77   2.0000      -0.331197        -9.0123 
  78   2.0000      -0.324936        -8.8420 
  79   0.0000       0.133407         3.6302 
  80   0.0000       0.136150         3.7048 
  81   0.0000       0.160376         4.3641 
  82   0.0000       0.173572         4.7231 
  83   0.0000       0.178117         4.8468 
  84   0.0000       0.192901         5.2491 
  85   0.0000       0.200196         5.4476 
  86   0.0000       0.202925         5.5219 
  87   0.0000       0.204122         5.5544 
  88   0.0000       0.217037         5.9059 
  89   0.0000       0.227592         6.1931 
  90   0.0000       0.229752         6.2519 
  91   0.0000       0.233198         6.3457 
  92   0.0000       0.240903         6.5553 
  93   0.0000       0.247081         6.7234 
  94   0.0000       0.251827         6.8526 
  95   0.0000       0.256414         6.9774 
  96   0.0000       0.259801         7.0695 
  97   0.0000       0.260842         7.0979 
  98   0.0000       0.270754         7.3676 
  99   0.0000       0.276864         7.5339 
 100   0.0000       0.288733         7.8568 
 101   0.0000       0.295004         8.0275 
 102   0.0000       0.301556         8.2057 
 103   0.0000       0.304508         8.2861 
 104   0.0000       0.308242         8.3877 
 105   0.0000       0.313025         8.5178 
 106   0.0000       0.327225         8.9042 
 107   0.0000       0.331829         9.0295 
 108   0.0000       0.335027         9.1165 
 109   0.0000       0.345872         9.4117 
 110   0.0000       0.351450         9.5634 
 111   0.0000       0.353993         9.6326 
 112   0.0000       0.361803         9.8451 
 113   0.0000       0.365744         9.9524 
 114   0.0000       0.375702        10.2234 
 115   0.0000       0.388480        10.5711 
 116   0.0000       0.400275        10.8920 
 117   0.0000       0.407471        11.0878 
 118   0.0000       0.419667        11.4197 
 119   0.0000       0.430100        11.7036 
 120   0.0000       0.438324        11.9274 
 121   0.0000       0.445871        12.1328 
 122   0.0000       0.461018        12.5449 
 123   0.0000       0.462994        12.5987 
 124   0.0000       0.467910        12.7325 
 125   0.0000       0.473311        12.8794 
 126   0.0000       0.484647        13.1879 
 127   0.0000       0.496213        13.5026 
 128   0.0000       0.500158        13.6100 
 129   0.0000       0.510892        13.9021 
 130   0.0000       0.523516        14.2456 
 131   0.0000       0.534632        14.5481 
 132   0.0000       0.548653        14.9296 
 133   0.0000       0.595034        16.1917 
 134   0.0000       0.597956        16.2712 
 135   0.0000       0.602784        16.4026 
 136   0.0000       0.616712        16.7816 
 137   0.0000       0.626915        17.0592 
 138   0.0000       0.637545        17.3485 
 139   0.0000       0.641964        17.4687 
 140   0.0000       0.644302        17.5323 
 141   0.0000       0.654315        17.8048 
 142   0.0000       0.657846        17.9009 
 143   0.0000       0.668394        18.1879 
 144   0.0000       0.671152        18.2630 
 145   0.0000       0.680327        18.5126 
 146   0.0000       0.689112        18.7517 
 147   0.0000       0.697344        18.9757 
 148   0.0000       0.697843        18.9893 
 149   0.0000       0.705290        19.1919 
 150   0.0000       0.714074        19.4310 
 151   0.0000       0.720373        19.6024 
 152   0.0000       0.744244        20.2519 
 153   0.0000       0.760198        20.6860 
 154   0.0000       0.771970        21.0064 
 155   0.0000       0.780192        21.2301 
 156   0.0000       0.785278        21.3685 
 157   0.0000       0.790821        21.5193 
 158   0.0000       0.813224        22.1289 
 159   0.0000       0.818053        22.2604 
 160   0.0000       0.820343        22.3227 
 161   0.0000       0.831467        22.6254 
 162   0.0000       0.840299        22.8657 
 163   0.0000       0.846632        23.0380 
 164   0.0000       0.851074        23.1589 
 165   0.0000       0.858805        23.3693 
 166   0.0000       0.860828        23.4243 
 167   0.0000       0.865219        23.5438 
 168   0.0000       0.871251        23.7080 
 169   0.0000       0.874348        23.7922 
 170   0.0000       0.880629        23.9631 
 171   0.0000       0.883159        24.0320 
 172   0.0000       0.885070        24.0840 
 173   0.0000       0.891856        24.2686 
 174   0.0000       0.894225        24.3331 
 175   0.0000       0.896193        24.3867 
 176   0.0000       0.902803        24.5665 
 177   0.0000       0.905566        24.6417 
 178   0.0000       0.911070        24.7915 
 179   0.0000       0.912177        24.8216 
 180   0.0000       0.914942        24.8968 
 181   0.0000       0.919588        25.0233 
 182   0.0000       0.919931        25.0326 
 183   0.0000       0.924541        25.1580 
 184   0.0000       0.927579        25.2407 
 185   0.0000       0.930832        25.3292 
 186   0.0000       0.935423        25.4542 
 187   0.0000       0.937744        25.5173 
 188   0.0000       0.938942        25.5499 
 189   0.0000       0.940910        25.6035 
 190   0.0000       0.942320        25.6418 
 191   0.0000       0.948318        25.8050 
 192   0.0000       0.949899        25.8481 
 193   0.0000       0.951646        25.8956 
 194   0.0000       0.955580        26.0026 
 195   0.0000       0.957811        26.0634 
 196   0.0000       0.961383        26.1606 
 197   0.0000       0.962962        26.2035 
 198   0.0000       0.967653        26.3312 
 199   0.0000       0.974594        26.5201 
 200   0.0000       0.977127        26.5890 
 201   0.0000       0.985077        26.8053 
 202   0.0000       0.986211        26.8362 
 203   0.0000       0.995627        27.0924 
 204   0.0000       1.002776        27.2869 
 205   0.0000       1.012020        27.5385 
 206   0.0000       1.015322        27.6283 
 207   0.0000       1.023784        27.8586 
 208   0.0000       1.032314        28.0907 
 209   0.0000       1.040861        28.3233 
 210   0.0000       1.045785        28.4573 
 211   0.0000       1.053612        28.6702 
 212   0.0000       1.070133        29.1198 
 213   0.0000       1.084870        29.5208 
 214   0.0000       1.094615        29.7860 
 215   0.0000       1.119855        30.4728 
 216   0.0000       1.137223        30.9454 
 217   0.0000       1.153787        31.3961 
 218   0.0000       1.172529        31.9061 
 219   0.0000       1.184376        32.2285 
 220   0.0000       1.193759        32.4838 
 221   0.0000       1.212930        33.0055 
 222   0.0000       1.218421        33.1549 
 223   0.0000       1.236172        33.6379 
 224   0.0000       1.242851        33.8197 
 225   0.0000       1.261533        34.3280 
 226   0.0000       1.277276        34.7565 
 227   0.0000       1.279913        34.8282 
 228   0.0000       1.310580        35.6627 
 229   0.0000       1.314676        35.7741 
 230   0.0000       1.332283        36.2533 
 231   0.0000       1.340433        36.4750 
 232   0.0000       1.345362        36.6091 
 233   0.0000       1.384945        37.6863 
 234   0.0000       1.389248        37.8033 
 235   0.0000       1.421948        38.6932 
 236   0.0000       1.433592        39.0100 
 237   0.0000       1.439145        39.1611 
 238   0.0000       1.461151        39.7599 
 239   0.0000       1.465851        39.8878 
 240   0.0000       1.476575        40.1797 
 241   0.0000       1.497910        40.7602 
 242   0.0000       1.510380        41.0995 
 243   0.0000       1.524285        41.4779 
 244   0.0000       1.525288        41.5052 
 245   0.0000       1.540389        41.9161 
 246   0.0000       1.548956        42.1492 
 247   0.0000       1.559719        42.4421 
 248   0.0000       1.572972        42.8027 
 249   0.0000       1.588101        43.2144 
 250   0.0000       1.601346        43.5748 
 251   0.0000       1.605804        43.6962 
 252   0.0000       1.627600        44.2893 
 253   0.0000       1.636048        44.5191 
 254   0.0000       1.639694        44.6183 
 255   0.0000       1.649532        44.8860 
 256   0.0000       1.664865        45.3033 
 257   0.0000       1.669027        45.4165 
 258   0.0000       1.670613        45.4597 
 259   0.0000       1.675020        45.5796 
 260   0.0000       1.717147        46.7259 
 261   0.0000       1.736893        47.2633 
 262   0.0000       1.749032        47.5936 
 263   0.0000       1.757322        47.8192 
 264   0.0000       1.772475        48.2315 
 265   0.0000       1.796200        48.8771 
 266   0.0000       1.804736        49.1094 
 267   0.0000       1.821081        49.5541 
 268   0.0000       1.850267        50.3483 
 269   0.0000       1.867544        50.8184 
 270   0.0000       1.875704        51.0405 
 271   0.0000       1.912797        52.0499 
 272   0.0000       1.920590        52.2619 
 273   0.0000       1.946404        52.9643 
 274   0.0000       1.956910        53.2502 
 275   0.0000       1.962163        53.3932 
 276   0.0000       1.983901        53.9847 
 277   0.0000       1.989584        54.1393 
 278   0.0000       2.002220        54.4832 
 279   0.0000       2.017644        54.9029 
 280   0.0000       2.026274        55.1377 
 281   0.0000       2.032244        55.3002 
 282   0.0000       2.036634        55.4196 
 283   0.0000       2.046129        55.6780 
 284   0.0000       2.047924        55.7268 
 285   0.0000       2.052085        55.8401 
 286   0.0000       2.055357        55.9291 
 287   0.0000       2.060293        56.0634 
 288   0.0000       2.061880        56.1066 
 289   0.0000       2.065827        56.2140 
 290   0.0000       2.067114        56.2490 
 291   0.0000       2.075462        56.4762 
 292   0.0000       2.078597        56.5615 
 293   0.0000       2.082515        56.6681 
 294   0.0000       2.085631        56.7529 
 295   0.0000       2.089758        56.8652 
 296   0.0000       2.095661        57.0258 
 297   0.0000       2.098360        57.0993 
 298   0.0000       2.105694        57.2989 
 299   0.0000       2.111446        57.4554 
 300   0.0000       2.113036        57.4986 
 301   0.0000       2.119531        57.6754 
 302   0.0000       2.124727        57.8168 
 303   0.0000       2.127692        57.8974 
 304   0.0000       2.130620        57.9771 
 305   0.0000       2.133308        58.0503 
 306   0.0000       2.139684        58.2237 
 307   0.0000       2.155045        58.6418 
 308   0.0000       2.161159        58.8081 
 309   0.0000       2.164005        58.8856 
 310   0.0000       2.165999        58.9398 
 311   0.0000       2.173549        59.1453 
 312   0.0000       2.183378        59.4127 
 313   0.0000       2.186394        59.4948 
 314   0.0000       2.195406        59.7400 
 315   0.0000       2.200258        59.8721 
 316   0.0000       2.205110        60.0041 
 317   0.0000       2.208181        60.0877 
 318   0.0000       2.215746        60.2935 
 319   0.0000       2.223447        60.5031 
 320   0.0000       2.228886        60.6511 
 321   0.0000       2.237855        60.8951 
 322   0.0000       2.246157        61.1210 
 323   0.0000       2.255472        61.3745 
 324   0.0000       2.258626        61.4604 
 325   0.0000       2.266947        61.6868 
 326   0.0000       2.271267        61.8043 
 327   0.0000       2.290219        62.3200 
 328   0.0000       2.293059        62.3973 
 329   0.0000       2.300204        62.5917 
 330   0.0000       2.303800        62.6896 
 331   0.0000       2.316991        63.0485 
 332   0.0000       2.324266        63.2465 
 333   0.0000       2.337879        63.6169 
 334   0.0000       2.348052        63.8937 
 335   0.0000       2.361782        64.2674 
 336   0.0000       2.366635        64.3994 
 337   0.0000       2.384924        64.8971 
 338   0.0000       2.396361        65.2083 
 339   0.0000       2.403576        65.4046 
 340   0.0000       2.409781        65.5735 
 341   0.0000       2.423033        65.9341 
 342   0.0000       2.438446        66.3535 
 343   0.0000       2.444936        66.5301 
 344   0.0000       2.447977        66.6128 
 345   0.0000       2.461790        66.9887 
 346   0.0000       2.468270        67.1650 
 347   0.0000       2.469480        67.1980 
 348   0.0000       2.485859        67.6437 
 349   0.0000       2.492918        67.8357 
 350   0.0000       2.504363        68.1472 
 351   0.0000       2.516640        68.4813 
 352   0.0000       2.524052        68.6829 
 353   0.0000       2.544348        69.2352 
 354   0.0000       2.571602        69.9768 
 355   0.0000       2.586759        70.3893 
 356   0.0000       2.591217        70.5106 
 357   0.0000       2.610825        71.0442 
 358   0.0000       2.623414        71.3867 
 359   0.0000       2.629506        71.5525 
 360   0.0000       2.640531        71.8525 
 361   0.0000       2.644068        71.9487 
 362   0.0000       2.651704        72.1565 
 363   0.0000       2.660165        72.3868 
 364   0.0000       2.673994        72.7631 
 365   0.0000       2.674874        72.7870 
 366   0.0000       2.683972        73.0346 
 367   0.0000       2.704555        73.5947 
 368   0.0000       2.707299        73.6693 
 369   0.0000       2.720462        74.0275 
 370   0.0000       2.724862        74.1473 
 371   0.0000       2.741486        74.5996 
 372   0.0000       2.748168        74.7815 
 373   0.0000       2.770278        75.3831 
 374   0.0000       2.794518        76.0427 
 375   0.0000       2.802605        76.2628 
 376   0.0000       2.830539        77.0229 
 377   0.0000       2.838059        77.2275 
 378   0.0000       2.852687        77.6256 
 379   0.0000       2.870670        78.1149 
 380   0.0000       2.879821        78.3639 
 381   0.0000       2.893008        78.7227 
 382   0.0000       2.917530        79.3900 
 383   0.0000       2.926315        79.6291 
 384   0.0000       2.930993        79.7564 
 385   0.0000       2.945059        80.1391 
 386   0.0000       2.965105        80.6846 
 387   0.0000       2.966127        80.7124 
 388   0.0000       2.970024        80.8185 
 389   0.0000       2.980014        81.0903 
 390   0.0000       2.997017        81.5530 
 391   0.0000       3.011779        81.9547 
 392   0.0000       3.019355        82.1608 
 393   0.0000       3.031970        82.5041 
 394   0.0000       3.056076        83.1601 
 395   0.0000       3.067848        83.4804 
 396   0.0000       3.080680        83.8296 
 397   0.0000       3.089705        84.0751 
 398   0.0000       3.095623        84.2362 
 399   0.0000       3.104725        84.4839 
 400   0.0000       3.115332        84.7725 
 401   0.0000       3.160930        86.0133 
 402   0.0000       3.180009        86.5324 
 403   0.0000       3.192945        86.8845 
 404   0.0000       3.213706        87.4494 
 405   0.0000       3.217134        87.5427 
 406   0.0000       3.223113        87.7054 
 407   0.0000       3.225797        87.7784 
 408   0.0000       3.238942        88.1361 
 409   0.0000       3.245236        88.3074 
 410   0.0000       3.251350        88.4737 
 411   0.0000       3.253166        88.5232 
 412   0.0000       3.286287        89.4244 
 413   0.0000       3.298253        89.7500 
 414   0.0000       3.308133        90.0189 
 415   0.0000       3.328629        90.5766 
 416   0.0000       3.335715        90.7694 
 417   0.0000       3.353476        91.2527 
 418   0.0000       3.357011        91.3489 
 419   0.0000       3.383610        92.0727 
 420   0.0000       3.388729        92.2120 
 421   0.0000       3.396234        92.4162 
 422   0.0000       3.405219        92.6607 
 423   0.0000       3.410882        92.8148 
 424   0.0000       3.431751        93.3827 
 425   0.0000       3.451765        93.9273 
 426   0.0000       3.455813        94.0374 
 427   0.0000       3.473527        94.5195 
 428   0.0000       3.477845        94.6370 
 429   0.0000       3.490343        94.9771 
 430   0.0000       3.501973        95.2935 
 431   0.0000       3.514314        95.6294 
 432   0.0000       3.548629        96.5631 
 433   0.0000       3.574896        97.2779 
 434   0.0000       3.605619        98.1139 
 435   0.0000       3.644495        99.1717 
 436   0.0000       3.850413       104.7751 
 437   0.0000       4.020549       109.4047 
 438   0.0000       4.210676       114.5783 

                    ********************************
                    * MULLIKEN POPULATION ANALYSIS *
                    ********************************

-----------------------
MULLIKEN ATOMIC CHARGES
-----------------------
   0 O :   -0.456810
   1 C :    0.189949
   2 C :    0.063596
   3 C :    0.186639
   4 N :   -0.678746
   5 C :    0.216269
   6 C :   -0.107906
   7 C :   -0.042380
   8 C :   -0.016796
   9 C :    0.160345
  10 C :   -0.118188
  11 C :    0.003633
  12 C :   -0.034866
  13 C :   -0.033668
  14 C :   -0.034494
  15 C :   -0.042438
  16 C :   -0.240323
  17 C :    0.044507
  18 C :   -0.045672
  19 C :   -0.027704
  20 C :   -0.005222
  21 H :    0.198085
  22 H :    0.007990
  23 H :    0.042125
  24 H :    0.048420
  25 H :    0.002419
  26 H :    0.030281
  27 H :    0.006590
  28 H :    0.028049
  29 H :    0.037479
  30 H :    0.031299
  31 H :    0.033478
  32 H :    0.029509
  33 H :    0.022886
  34 H :    0.032502
  35 H :   -0.001436
  36 H :    0.048723
  37 H :    0.037936
  38 H :    0.036930
  39 H :    0.034693
  40 H :    0.030274
  41 H :    0.036727
  42 H :    0.035435
  43 H :    0.046418
  44 H :    0.025135
  45 H :    0.031790
  46 H :    0.027082
  47 H :    0.031474
  48 H :    0.032766
  49 H :    0.015217
Sum of atomic charges:    0.0000000

--------------------------------
MULLIKEN REDUCED ORBITAL CHARGES
--------------------------------
  0 O s       :     3.770390  s :     3.770390
      pz      :     1.333245  p :     4.672831
      px      :     1.728774
      py      :     1.610813
      dz2     :     0.004016  d :     0.013588
      dxz     :     0.003517
      dyz     :     0.001837
      dx2y2   :     0.001160
      dxy     :     0.003058
  1 C s       :     3.051490  s :     3.051490
      pz      :     0.728736  p :     2.673231
      px      :     0.962432
      py      :     0.982062
      dz2     :     0.025355  d :     0.085331
      dxz     :     0.014843
      dyz     :     0.017413
      dx2y2   :     0.017150
      dxy     :     0.010569
  2 C s       :     3.034865  s :     3.034865
      pz      :     0.994036  p :     2.857936
      px      :     0.859663
      py      :     1.004237
      dz2     :     0.008319  d :     0.043602
      dxz     :     0.007327
      dyz     :     0.011481
      dx2y2   :     0.011184
      dxy     :     0.005291
  3 C s       :     2.990713  s :     2.990713
      pz      :     0.992299  p :     2.762831
      px      :     0.757558
      py      :     1.012973
      dz2     :     0.010125  d :     0.059818
      dxz     :     0.014070
      dyz     :     0.010912
      dx2y2   :     0.016113
      dxy     :     0.008597
  4 N s       :     3.625044  s :     3.625044
      pz      :     1.519346  p :     4.021865
      px      :     1.194457
      py      :     1.308062
      dz2     :     0.007665  d :     0.031837
      dxz     :     0.005357
      dyz     :     0.003349
      dx2y2   :     0.010983
      dxy     :     0.004484
  5 C s       :     2.987460  s :     2.987460
      pz      :     0.826188  p :     2.736396
      px      :     0.928012
      py      :     0.982195
      dz2     :     0.016387  d :     0.059875
      dxz     :     0.015110
      dyz     :     0.007464
      dx2y2   :     0.013109
      dxy     :     0.007804
  6 C s       :     3.102553  s :     3.102553
      pz      :     1.006174  p :     2.959459
      px      :     0.955234
      py      :     0.998052
      dz2     :     0.007262  d :     0.045893
      dxz     :     0.008917
      dyz     :     0.012265
      dx2y2   :     0.008731
      dxy     :     0.008718
  7 C s       :     3.070806  s :     3.070806
      pz      :     0.956148  p :     2.925090
      px      :     0.980256
      py      :     0.988686
      dz2     :     0.008464  d :     0.046484
      dxz     :     0.008473
      dyz     :     0.012460
      dx2y2   :     0.008299
      dxy     :     0.008788
  8 C s       :     3.050361  s :     3.050361
      pz      :     1.007608  p :     2.921215
      px      :     0.928777
      py      :     0.984830
      dz2     :     0.012544  d :     0.045220
      dxz     :     0.007078
      dyz     :     0.005194
      dx2y2   :     0.012336
      dxy     :     0.008067
  9 C s       :     2.995615  s :     2.995615
      pz      :     0.993463  p :     2.782973
      px      :     0.996808
      py      :     0.792702
      dz2     :     0.008855  d :     0.061068
      dxz     :     0.008499
      dyz     :     0.016345
      dx2y2   :     0.017361
      dxy     :     0.010008
 10 C s       :     3.063452  s :     3.063452
      pz      :     1.015646  p :     3.005691
      px      :     0.982496
      py      :     1.007549
      dz2     :     0.012826  d :     0.049045
      dxz     :     0.007330
      dyz     :     0.014743
      dx2y2   :     0.007611
      dxy     :     0.006534
 11 C s       :     3.170801  s :     3.170801
      pz      :     0.935733  p :     2.782897
      px      :     0.954484
      py      :     0.892679
      dz2     :     0.010131  d :     0.042670
      dxz     :     0.004083
      dyz     :     0.013372
      dx2y2   :     0.007600
      dxy     :     0.007483
 12 C s       :     3.128606  s :     3.128606
      pz      :     0.938164  p :     2.862155
      px      :     0.985807
      py      :     0.938183
      dz2     :     0.011438  d :     0.044105
      dxz     :     0.006209
      dyz     :     0.014492
      dx2y2   :     0.006564
      dxy     :     0.005403
 13 C s       :     3.126761  s :     3.126761
      pz      :     0.949754  p :     2.862630
      px      :     0.984151
      py      :     0.928725
      dz2     :     0.012384  d :     0.044277
      dxz     :     0.007336
      dyz     :     0.014052
      dx2y2   :     0.005806
      dxy     :     0.004698
 14 C s       :     3.126253  s :     3.126253
      pz      :     0.927332  p :     2.864212
      px      :     0.987269
      py      :     0.949611
      dz2     :     0.010735  d :     0.044029
      dxz     :     0.004065
      dyz     :     0.013635
      dx2y2   :     0.007653
      dxy     :     0.007941
 15 C s       :     3.163551  s :     3.163551
      pz      :     0.943582  p :     2.835906
      px      :     0.988977
      py      :     0.903348
      dz2     :     0.010745  d :     0.042981
      dxz     :     0.006070
      dyz     :     0.014518
      dx2y2   :     0.006371
      dxy     :     0.005276
 16 C s       :     3.198082  s :     3.198082
      pz      :     1.016156  p :     2.989821
      px      :     1.001567
      py      :     0.972097
      dz2     :     0.013218  d :     0.052420
      dxz     :     0.006268
      dyz     :     0.008149
      dx2y2   :     0.015064
      dxy     :     0.009722
 17 C s       :     3.039253  s :     3.039253
      pz      :     1.026516  p :     2.870847
      px      :     0.888606
      py      :     0.955725
      dz2     :     0.010468  d :     0.045393
      dxz     :     0.006351
      dyz     :     0.007675
      dx2y2   :     0.013040
      dxy     :     0.007858
 18 C s       :     3.063371  s :     3.063371
      pz      :     1.015399  p :     2.936620
      px      :     0.983486
      py      :     0.937734
      dz2     :     0.011059  d :     0.045681
      dxz     :     0.007568
      dyz     :     0.005703
      dx2y2   :     0.009691
      dxy     :     0.011661
 19 C s       :     3.055556  s :     3.055556
      pz      :     1.001452  p :     2.926361
      px      :     0.937117
      py      :     0.987792
      dz2     :     0.007803  d :     0.045788
      dxz     :     0.007286
      dyz     :     0.010523
      dx2y2   :     0.007452
      dxy     :     0.012725
 20 C s       :     3.052681  s :     3.052681
      pz      :     0.993814  p :     2.906404
      px      :     0.999799
      py      :     0.912790
      dz2     :     0.013503  d :     0.046138
      dxz     :     0.004668
      dyz     :     0.006774
      dx2y2   :     0.011043
      dxy     :     0.010150
 21 H s       :     0.732298  s :     0.732298
      pz      :     0.018503  p :     0.069617
      px      :     0.021714
      py      :     0.029400
 22 H s       :     0.967545  s :     0.967545
      pz      :     0.006672  p :     0.024465
      px      :     0.004336
      py      :     0.013457
 23 H s       :     0.934120  s :     0.934120
      pz      :     0.007176  p :     0.023755
      px      :     0.004781
      py      :     0.011798
 24 H s       :     0.927607  s :     0.927607
      pz      :     0.005631  p :     0.023973
      px      :     0.002669
      py      :     0.015674
 25 H s       :     0.974591  s :     0.974591
      pz      :     0.008400  p :     0.022989
      px      :     0.003979
      py      :     0.010611
 26 H s       :     0.946714  s :     0.946714
      pz      :     0.002916  p :     0.023006
      px      :     0.002840
      py      :     0.017250
 27 H s       :     0.970247  s :     0.970247
      pz      :     0.012606  p :     0.023163
      px      :     0.006853
      py      :     0.003704
 28 H s       :     0.948206  s :     0.948206
      pz      :     0.008182  p :     0.023745
      px      :     0.003121
      py      :     0.012442
 29 H s       :     0.938353  s :     0.938353
      pz      :     0.006395  p :     0.024168
      px      :     0.007689
      py      :     0.010085
 30 H s       :     0.944699  s :     0.944699
      pz      :     0.003699  p :     0.024002
      px      :     0.014813
      py      :     0.005491
 31 H s       :     0.942678  s :     0.942678
      pz      :     0.007804  p :     0.023843
      px      :     0.003467
      py      :     0.012572
 32 H s       :     0.946469  s :     0.946469
      pz      :     0.016949  p :     0.024022
      px      :     0.003108
      py      :     0.003965
 33 H s       :     0.953060  s :     0.953060
      pz      :     0.004046  p :     0.024054
      px      :     0.004838
      py      :     0.015170
 34 H s       :     0.943781  s :     0.943781
      pz      :     0.011910  p :     0.023716
      px      :     0.006750
      py      :     0.005057
 35 H s       :     0.978924  s :     0.978924
      pz      :     0.012731  p :     0.022512
      px      :     0.003051
      py      :     0.006730
 36 H s       :     0.925306  s :     0.925306
      pz      :     0.018382  p :     0.025972
      px      :     0.004606
      py      :     0.002983
 37 H s       :     0.936654  s :     0.936654
      pz      :     0.009155  p :     0.025410
      px      :     0.003870
      py      :     0.012385
 38 H s       :     0.937635  s :     0.937635
      pz      :     0.004313  p :     0.025435
      px      :     0.004948
      py      :     0.016174
 39 H s       :     0.939840  s :     0.939840
      pz      :     0.017676  p :     0.025467
      px      :     0.004987
      py      :     0.002804
 40 H s       :     0.944027  s :     0.944027
      pz      :     0.009913  p :     0.025699
      px      :     0.004126
      py      :     0.011660
 41 H s       :     0.941260  s :     0.941260
      pz      :     0.016581  p :     0.022013
      px      :     0.003161
      py      :     0.002271
 42 H s       :     0.940255  s :     0.940255
      pz      :     0.008129  p :     0.024309
      px      :     0.006140
      py      :     0.010040
 43 H s       :     0.929164  s :     0.929164
      pz      :     0.016973  p :     0.024418
      px      :     0.003898
      py      :     0.003547
 44 H s       :     0.950813  s :     0.950813
      pz      :     0.016658  p :     0.024053
      px      :     0.004229
      py      :     0.003166
 45 H s       :     0.944100  s :     0.944100
      pz      :     0.007499  p :     0.024110
      px      :     0.011690
      py      :     0.004922
 46 H s       :     0.948813  s :     0.948813
      pz      :     0.014377  p :     0.024104
      px      :     0.004646
      py      :     0.005081
 47 H s       :     0.944401  s :     0.944401
      pz      :     0.008609  p :     0.024126
      px      :     0.003668
      py      :     0.011848
 48 H s       :     0.943377  s :     0.943377
      pz      :     0.004542  p :     0.023857
      px      :     0.015245
      py      :     0.004070
 49 H s       :     0.961112  s :     0.961112
      pz      :     0.017053  p :     0.023672
      px      :     0.003430
      py      :     0.003189


                     *******************************
                     * LOEWDIN POPULATION ANALYSIS *
                     *******************************

----------------------
LOEWDIN ATOMIC CHARGES
----------------------
   0 O :   -0.177993
   1 C :    0.097103
   2 C :   -0.017256
   3 C :    0.067345
   4 N :   -0.204618
   5 C :    0.065719
   6 C :   -0.029410
   7 C :   -0.020408
   8 C :   -0.023161
   9 C :    0.059086
  10 C :   -0.025209
  11 C :   -0.006096
  12 C :   -0.026567
  13 C :   -0.029590
  14 C :   -0.029575
  15 C :   -0.027802
  16 C :   -0.036838
  17 C :   -0.010717
  18 C :   -0.021700
  19 C :   -0.018952
  20 C :   -0.017527
  21 H :    0.074869
  22 H :    0.004133
  23 H :    0.023455
  24 H :    0.018264
  25 H :   -0.008481
  26 H :    0.009145
  27 H :   -0.005274
  28 H :    0.010228
  29 H :    0.019128
  30 H :    0.014129
  31 H :    0.015463
  32 H :    0.015715
  33 H :    0.011866
  34 H :    0.009655
  35 H :   -0.012494
  36 H :    0.029583
  37 H :    0.026109
  38 H :    0.024595
  39 H :    0.025036
  40 H :    0.021103
  41 H :    0.008651
  42 H :    0.013198
  43 H :    0.018629
  44 H :    0.011355
  45 H :    0.013860
  46 H :    0.012795
  47 H :    0.013857
  48 H :    0.009617
  49 H :    0.005976

-------------------------------
LOEWDIN REDUCED ORBITAL CHARGES
-------------------------------
  0 O s       :     3.450794  s :     3.450794
      pz      :     1.351548  p :     4.703339
      px      :     1.727027
      py      :     1.624764
      dz2     :     0.007005  d :     0.023860
      dxz     :     0.005984
      dyz     :     0.004535
      dx2y2   :     0.001176
      dxy     :     0.005160
  1 C s       :     2.848221  s :     2.848221
      pz      :     0.824138  p :     2.882188
      px      :     1.024340
      py      :     1.033710
      dz2     :     0.050190  d :     0.172488
      dxz     :     0.030086
      dyz     :     0.035803
      dx2y2   :     0.035624
      dxy     :     0.020785
  2 C s       :     2.843741  s :     2.843741
      pz      :     1.033538  p :     3.077093
      px      :     0.991836
      py      :     1.051719
      dz2     :     0.018230  d :     0.096422
      dxz     :     0.016639
      dyz     :     0.024667
      dx2y2   :     0.025174
      dxy     :     0.011713
  3 C s       :     2.827534  s :     2.827534
      pz      :     1.031245  p :     2.975771
      px      :     0.891385
      py      :     1.053141
      dz2     :     0.020980  d :     0.129349
      dxz     :     0.031572
      dyz     :     0.023361
      dx2y2   :     0.034666
      dxy     :     0.018771
  4 N s       :     3.148931  s :     3.148931
      pz      :     1.492683  p :     3.995920
      px      :     1.192337
      py      :     1.310900
      dz2     :     0.012901  d :     0.059768
      dxz     :     0.010024
      dyz     :     0.006720
      dx2y2   :     0.020328
      dxy     :     0.009794
  5 C s       :     2.831056  s :     2.831056
      pz      :     0.945131  p :     2.973777
      px      :     1.001361
      py      :     1.027285
      dz2     :     0.037125  d :     0.129448
      dxz     :     0.033366
      dyz     :     0.014978
      dx2y2   :     0.028488
      dxy     :     0.015490
  6 C s       :     2.834176  s :     2.834176
      pz      :     1.034105  p :     3.095839
      px      :     1.019595
      py      :     1.042140
      dz2     :     0.015419  d :     0.099394
      dxz     :     0.018914
      dyz     :     0.027461
      dx2y2   :     0.018596
      dxy     :     0.019004
  7 C s       :     2.830156  s :     2.830156
      pz      :     1.025047  p :     3.089651
      px      :     1.027381
      py      :     1.037224
      dz2     :     0.017778  d :     0.100601
      dxz     :     0.018423
      dyz     :     0.027239
      dx2y2   :     0.018048
      dxy     :     0.019113
  8 C s       :     2.836248  s :     2.836248
      pz      :     1.042267  p :     3.088692
      px      :     1.010819
      py      :     1.035606
      dz2     :     0.028174  d :     0.098221
      dxz     :     0.014515
      dyz     :     0.010664
      dx2y2   :     0.027051
      dxy     :     0.017817
  9 C s       :     2.829147  s :     2.829147
      pz      :     1.043187  p :     2.979571
      px      :     1.023442
      py      :     0.912942
      dz2     :     0.018401  d :     0.132195
      dxz     :     0.017834
      dyz     :     0.037284
      dx2y2   :     0.037844
      dxy     :     0.020832
 10 C s       :     2.857013  s :     2.857013
      pz      :     1.071047  p :     3.060113
      px      :     0.953511
      py      :     1.035556
      dz2     :     0.029596  d :     0.108082
      dxz     :     0.014568
      dyz     :     0.034725
      dx2y2   :     0.016161
      dxy     :     0.013032
 11 C s       :     2.853124  s :     2.853124
      pz      :     1.043657  p :     3.056434
      px      :     0.963851
      py      :     1.048925
      dz2     :     0.024862  d :     0.096538
      dxz     :     0.007512
      dyz     :     0.031572
      dx2y2   :     0.017290
      dxy     :     0.015303
 12 C s       :     2.852043  s :     2.852043
      pz      :     1.051484  p :     3.075474
      px      :     0.976246
      py      :     1.047744
      dz2     :     0.026515  d :     0.099050
      dxz     :     0.012279
      dyz     :     0.035874
      dx2y2   :     0.014101
      dxy     :     0.010281
 13 C s       :     2.851523  s :     2.851523
      pz      :     1.061603  p :     3.078396
      px      :     0.975687
      py      :     1.041106
      dz2     :     0.029375  d :     0.099671
      dxz     :     0.014882
      dyz     :     0.033986
      dx2y2   :     0.012631
      dxy     :     0.008798
 14 C s       :     2.851777  s :     2.851777
      pz      :     1.037292  p :     3.078929
      px      :     0.979528
      py      :     1.062109
      dz2     :     0.025893  d :     0.098869
      dxz     :     0.007380
      dyz     :     0.032230
      dx2y2   :     0.017240
      dxy     :     0.016126
 15 C s       :     2.851792  s :     2.851792
      pz      :     1.045642  p :     3.078384
      px      :     0.985850
      py      :     1.046892
      dz2     :     0.025144  d :     0.097625
      dxz     :     0.012235
      dyz     :     0.036461
      dx2y2   :     0.013559
      dxy     :     0.010226
 16 C s       :     2.847404  s :     2.847404
      pz      :     1.038678  p :     3.077786
      px      :     1.029992
      py      :     1.009115
      dz2     :     0.028344  d :     0.111648
      dxz     :     0.013174
      dyz     :     0.017373
      dx2y2   :     0.032524
      dxy     :     0.020234
 17 C s       :     2.832014  s :     2.832014
      pz      :     1.061742  p :     3.078965
      px      :     0.998240
      py      :     1.018983
      dz2     :     0.022516  d :     0.099737
      dxz     :     0.013753
      dyz     :     0.016736
      dx2y2   :     0.029574
      dxy     :     0.017158
 18 C s       :     2.832750  s :     2.832750
      pz      :     1.049868  p :     3.089271
      px      :     1.023442
      py      :     1.015960
      dz2     :     0.024348  d :     0.099679
      dxz     :     0.016849
      dyz     :     0.011493
      dx2y2   :     0.021260
      dxy     :     0.025730
 19 C s       :     2.832210  s :     2.832210
      pz      :     1.046735  p :     3.086842
      px      :     1.015635
      py      :     1.024472
      dz2     :     0.016131  d :     0.099901
      dxz     :     0.015416
      dyz     :     0.024227
      dx2y2   :     0.015679
      dxy     :     0.028448
 20 C s       :     2.832743  s :     2.832743
      pz      :     1.042028  p :     3.083646
      px      :     1.033607
      py      :     1.008011
      dz2     :     0.030453  d :     0.101137
      dxz     :     0.009618
      dyz     :     0.014093
      dx2y2   :     0.024589
      dxy     :     0.022385
 21 H s       :     0.740816  s :     0.740816
      pz      :     0.046489  p :     0.184315
      px      :     0.061295
      py      :     0.076531
 22 H s       :     0.928187  s :     0.928187
      pz      :     0.020181  p :     0.067680
      px      :     0.015322
      py      :     0.032177
 23 H s       :     0.909807  s :     0.909807
      pz      :     0.021689  p :     0.066738
      px      :     0.016339
      py      :     0.028710
 24 H s       :     0.915811  s :     0.915811
      pz      :     0.017646  p :     0.065924
      px      :     0.010600
      py      :     0.037678
 25 H s       :     0.942186  s :     0.942186
      pz      :     0.024339  p :     0.066296
      px      :     0.015518
      py      :     0.026439
 26 H s       :     0.926652  s :     0.926652
      pz      :     0.010063  p :     0.064203
      px      :     0.012443
      py      :     0.041697
 27 H s       :     0.940005  s :     0.940005
      pz      :     0.032685  p :     0.065269
      px      :     0.019858
      py      :     0.012725
 28 H s       :     0.923933  s :     0.923933
      pz      :     0.023102  p :     0.065839
      px      :     0.012482
      py      :     0.030255
 29 H s       :     0.914998  s :     0.914998
      pz      :     0.019219  p :     0.065875
      px      :     0.021480
      py      :     0.025176
 30 H s       :     0.919981  s :     0.919981
      pz      :     0.013673  p :     0.065891
      px      :     0.035740
      py      :     0.016478
 31 H s       :     0.918674  s :     0.918674
      pz      :     0.021886  p :     0.065863
      px      :     0.012808
      py      :     0.031169
 32 H s       :     0.918307  s :     0.918307
      pz      :     0.039939  p :     0.065977
      px      :     0.012766
      py      :     0.013272
 33 H s       :     0.922187  s :     0.922187
      pz      :     0.013566  p :     0.065947
      px      :     0.016076
      py      :     0.036305
 34 H s       :     0.925196  s :     0.925196
      pz      :     0.029527  p :     0.065149
      px      :     0.020774
      py      :     0.014848
 35 H s       :     0.946759  s :     0.946759
      pz      :     0.030918  p :     0.065734
      px      :     0.013628
      py      :     0.021188
 36 H s       :     0.900329  s :     0.900329
      pz      :     0.043725  p :     0.070088
      px      :     0.015138
      py      :     0.011225
 37 H s       :     0.905853  s :     0.905853
      pz      :     0.023993  p :     0.068039
      px      :     0.013633
      py      :     0.030413
 38 H s       :     0.907254  s :     0.907254
      pz      :     0.014266  p :     0.068151
      px      :     0.015833
      py      :     0.038052
 39 H s       :     0.906877  s :     0.906877
      pz      :     0.041157  p :     0.068087
      px      :     0.015899
      py      :     0.011031
 40 H s       :     0.909331  s :     0.909331
      pz      :     0.025583  p :     0.069566
      px      :     0.014232
      py      :     0.029752
 41 H s       :     0.922031  s :     0.922031
      pz      :     0.040214  p :     0.069319
      px      :     0.015532
      py      :     0.013573
 42 H s       :     0.919380  s :     0.919380
      pz      :     0.021427  p :     0.067422
      px      :     0.019253
      py      :     0.026742
 43 H s       :     0.913000  s :     0.913000
      pz      :     0.040159  p :     0.068371
      px      :     0.014716
      py      :     0.013496
 44 H s       :     0.922357  s :     0.922357
      pz      :     0.038581  p :     0.066287
      px      :     0.014700
      py      :     0.013007
 45 H s       :     0.919758  s :     0.919758
      pz      :     0.020092  p :     0.066383
      px      :     0.029932
      py      :     0.016359
 46 H s       :     0.920974  s :     0.920974
      pz      :     0.034040  p :     0.066231
      px      :     0.015665
      py      :     0.016526
 47 H s       :     0.919718  s :     0.919718
      pz      :     0.022350  p :     0.066425
      px      :     0.013786
      py      :     0.030288
 48 H s       :     0.923349  s :     0.923349
      pz      :     0.014441  p :     0.067034
      px      :     0.037090
      py      :     0.015504
 49 H s       :     0.926869  s :     0.926869
      pz      :     0.040709  p :     0.067156
      px      :     0.013048
      py      :     0.013399


                      *****************************
                      * MAYER POPULATION ANALYSIS *
                      *****************************

  NA   - Mulliken gross atomic population
  ZA   - Total nuclear charge
  QA   - Mulliken gross atomic charge
  VA   - Mayer's total valence
  BVA  - Mayer's bonded valence
  FA   - Mayer's free valence

  ATOM       NA         ZA         QA         VA         BVA        FA
  0 O      8.4568     8.0000    -0.4568     1.9061     1.9061     0.0000
  1 C      5.8101     6.0000     0.1899     3.7581     3.7581     0.0000
  2 C      5.9364     6.0000     0.0636     3.8630     3.8630     0.0000
  3 C      5.8134     6.0000     0.1866     3.8552     3.8552     0.0000
  4 N      7.6787     7.0000    -0.6787     2.7815     2.7815     0.0000
  5 C      5.7837     6.0000     0.2163     3.8298     3.8298    -0.0000
  6 C      6.1079     6.0000    -0.1079     4.0021     4.0021     0.0000
  7 C      6.0424     6.0000    -0.0424     3.9452     3.9452    -0.0000
  8 C      6.0168     6.0000    -0.0168     3.9566     3.9566    -0.0000
  9 C      5.8397     6.0000     0.1603     3.8761     3.8761     0.0000
 10 C      6.1182     6.0000    -0.1182     3.7721     3.7721    -0.0000
 11 C      5.9964     6.0000     0.0036     3.9095     3.9095     0.0000
 12 C      6.0349     6.0000    -0.0349     3.8626     3.8626     0.0000
 13 C      6.0337     6.0000    -0.0337     3.8556     3.8556    -0.0000
 14 C      6.0345     6.0000    -0.0345     3.8929     3.8929    -0.0000
 15 C      6.0424     6.0000    -0.0424     3.9188     3.9188    -0.0000
 16 C      6.2403     6.0000    -0.2403     3.8320     3.8320     0.0000
 17 C      5.9555     6.0000     0.0445     3.8744     3.8744     0.0000
 18 C      6.0457     6.0000    -0.0457     3.9628     3.9628     0.0000
 19 C      6.0277     6.0000    -0.0277     3.9602     3.9602     0.0000
 20 C      6.0052     6.0000    -0.0052     3.9183     3.9183     0.0000
 21 H      0.8019     1.0000     0.1981     0.9978     0.9978     0.0000
 22 H      0.9920     1.0000     0.0080     0.9963     0.9963    -0.0000
 23 H      0.9579     1.0000     0.0421     0.9963     0.9963     0.0000
 24 H      0.9516     1.0000     0.0484     0.9897     0.9897     0.0000
 25 H      0.9976     1.0000     0.0024     0.9856     0.9856     0.0000
 26 H      0.9697     1.0000     0.0303     0.9748     0.9748    -0.0000
 27 H      0.9934     1.0000     0.0066     0.9731     0.9731    -0.0000
 28 H      0.9720     1.0000     0.0280     0.9651     0.9651     0.0000
 29 H      0.9625     1.0000     0.0375     0.9735     0.9735     0.0000
 30 H      0.9687     1.0000     0.0313     0.9700     0.9700    -0.0000
 31 H      0.9665     1.0000     0.0335     0.9694     0.9694    -0.0000
 32 H      0.9705     1.0000     0.0295     0.9727     0.9727     0.0000
 33 H      0.9771     1.0000     0.0229     0.9701     0.9701    -0.0000
 34 H      0.9675     1.0000     0.0325     0.9771     0.9771     0.0000
 35 H      1.0014     1.0000    -0.0014     0.9733     0.9733     0.0000
 36 H      0.9513     1.0000     0.0487     1.0069     1.0069     0.0000
 37 H      0.9621     1.0000     0.0379     0.9860     0.9860    -0.0000
 38 H      0.9631     1.0000     0.0369     0.9854     0.9854    -0.0000
 39 H      0.9653     1.0000     0.0347     0.9858     0.9858    -0.0000
 40 H      0.9697     1.0000     0.0303     0.9907     0.9907    -0.0000
 41 H      0.9633     1.0000     0.0367     0.9568     0.9568    -0.0000
 42 H      0.9646     1.0000     0.0354     0.9833     0.9833     0.0000
 43 H      0.9536     1.0000     0.0464     0.9947     0.9947     0.0000
 44 H      0.9749     1.0000     0.0251     0.9679     0.9679     0.0000
 45 H      0.9682     1.0000     0.0318     0.9716     0.9716     0.0000
 46 H      0.9729     1.0000     0.0271     0.9688     0.9688     0.0000
 47 H      0.9685     1.0000     0.0315     0.9718     0.9718     0.0000
 48 H      0.9672     1.0000     0.0328     0.9744     0.9744    -0.0000
 49 H      0.9848     1.0000     0.0152     0.9837     0.9837     0.0000

  Mayer bond orders larger than 0.100000
B(  0-O ,  1-C ) :   0.8928 B(  0-O , 21-H ) :   0.9673 B(  1-C ,  2-C ) :   1.0392 
B(  1-C , 10-C ) :   0.9435 B(  1-C , 16-C ) :   0.9694 B(  2-C ,  3-C ) :   1.0168 
B(  2-C , 22-H ) :   0.9598 B(  2-C , 23-H ) :   0.9628 B(  3-C ,  4-N ) :   0.9376 
B(  3-C , 24-H ) :   0.9715 B(  3-C , 25-H ) :   0.9672 B(  4-N ,  5-C ) :   0.9197 
B(  4-N ,  9-C ) :   0.9280 B(  5-C ,  6-C ) :   1.0303 B(  5-C , 26-H ) :   0.9749 
B(  5-C , 27-H ) :   0.9736 B(  6-C ,  7-C ) :   1.0476 B(  6-C , 28-H ) :   0.9756 
B(  6-C , 29-H ) :   0.9753 B(  7-C ,  8-C ) :   1.0174 B(  7-C , 30-H ) :   0.9802 
B(  7-C , 31-H ) :   0.9694 B(  8-C ,  9-C ) :   1.0527 B(  8-C , 32-H ) :   0.9730 
B(  8-C , 33-H ) :   0.9740 B(  9-C , 34-H ) :   0.9776 B(  9-C , 35-H ) :   0.9640 
B( 10-C , 11-C ) :   1.4311 B( 10-C , 15-C ) :   1.4285 B( 11-C , 12-C ) :   1.4236 
B( 11-C , 36-H ) :   0.9978 B( 12-C , 13-C ) :   1.4023 B( 12-C , 37-H ) :   1.0011 
B( 13-C , 14-C ) :   1.4194 B( 13-C , 38-H ) :   1.0001 B( 14-C , 15-C ) :   1.4256 
B( 14-C , 39-H ) :   0.9996 B( 15-C , 40-H ) :   1.0003 B( 16-C , 17-C ) :   1.0033 
B( 16-C , 20-C ) :   1.0099 B( 16-C , 41-H ) :   0.9391 B( 17-C , 18-C ) :   1.0547 
B( 17-C , 42-H ) :   0.9720 B( 17-C , 43-H ) :   0.9654 B( 18-C , 19-C ) :   1.0273 
B( 18-C , 44-H ) :   0.9702 B( 18-C , 45-H ) :   0.9767 B( 19-C , 20-C ) :   1.0582 
B( 19-C , 46-H ) :   0.9697 B( 19-C , 47-H ) :   0.9762 B( 20-C , 48-H ) :   0.9678 
B( 20-C , 49-H ) :   0.9667 

-------
TIMINGS
-------

Total SCF time: 0 days 0 hours 0 min 31 sec 

Total time                  ....      31.731 sec
Sum of individual times     ....      31.331 sec  ( 98.7%)

Fock matrix formation       ....      30.213 sec  ( 95.2%)
Diagonalization             ....       0.284 sec  (  0.9%)
Density matrix formation    ....       0.024 sec  (  0.1%)
Population analysis         ....       0.044 sec  (  0.1%)
Initial guess               ....       0.198 sec  (  0.6%)
Orbital Transformation      ....       0.000 sec  (  0.0%)
Orbital Orthonormalization  ....       0.000 sec  (  0.0%)
DIIS solution               ....       0.129 sec  (  0.4%)
SOSCF solution              ....       0.224 sec  (  0.7%)

Maximum memory used throughout the entire SCF-calculation: 245.0 MB

-------------------------   --------------------
FINAL SINGLE POINT ENERGY      -865.036696315575
-------------------------   --------------------


                            ***************************************
                            *     ORCA property calculations      *
                            ***************************************

                                    ---------------------
                                    Active property flags
                                    ---------------------
   (+) Dipole Moment


------------------------------------------------------------------------------
                       ORCA ELECTRIC PROPERTIES CALCULATION
------------------------------------------------------------------------------

Dipole Moment Calculation                       ... on
Quadrupole Moment Calculation                   ... off
Polarizability Calculation                      ... off
GBWName                                         ... ./ZINC000000000199/ZINC000000000199.gbw
Electron density                                ... ./ZINC000000000199/ZINC000000000199.scfp
The origin for moment calculation is the CENTER OF MASS  = (-0.402220,  0.515655 -0.195697)

-------------
DIPOLE MOMENT
-------------
                                X             Y             Z
Electronic contribution:    -10.33627      13.46893      -4.12723
Nuclear contribution   :     10.82217     -14.01216       4.56516
                        -----------------------------------------
Total Dipole Moment    :      0.48591      -0.54322       0.43793
                        -----------------------------------------
Magnitude (a.u.)       :      0.85028
Magnitude (Debye)      :      2.16125



--------------------
Rotational spectrum 
--------------------
 
Rotational constants in cm-1:     0.012079     0.006529     0.004889 
Rotational constants in MHz :   362.116500   195.736737   146.573598 

 Dipole components along the rotational axes: 
x,y,z [a.u.] :     0.641297     0.379960     0.409083 
x,y,z [Debye]:     1.630047     0.965781     1.039807 

 

Timings for individual modules:

Sum of individual times         ...       32.460 sec (=   0.541 min)
GTO integral calculation        ...        0.501 sec (=   0.008 min)   1.5 %
SCF iterations                  ...       31.959 sec (=   0.533 min)  98.5 %
                             ****ORCA TERMINATED NORMALLY****
TOTAL RUN TIME: 0 days 0 hours 0 minutes 32 seconds 875 msec
