
                                 *****************
                                 * O   R   C   A *
                                 *****************

                                            #,                                       
                                            ###                                      
                                            ####                                     
                                            #####                                    
                                            ######                                   
                                           ########,                                 
                                     ,,################,,,,,                         
                               ,,#################################,,                 
                          ,,##########################################,,             
                       ,#########################################, ''#####,          
                    ,#############################################,,   '####,        
                  ,##################################################,,,,####,       
                ,###########''''           ''''###############################       
              ,#####''   ,,,,##########,,,,          '''####'''          '####       
            ,##' ,,,,###########################,,,                        '##       
           ' ,,###''''                  '''############,,,                           
         ,,##''                                '''############,,,,        ,,,,,,###''
      ,#''                                            '''#######################'''  
     '                                                          ''''####''''         
             ,#######,   #######,   ,#######,      ##                                
            ,#'     '#,  ##    ##  ,#'     '#,    #''#        ######   ,####,        
            ##       ##  ##   ,#'  ##            #'  '#       #        #'  '#        
            ##       ##  #######   ##           ,######,      #####,   #    #        
            '#,     ,#'  ##    ##  '#,     ,#' ,#      #,         ##   #,  ,#        
             '#######'   ##     ##  '#######'  #'      '#     #####' # '####'        



                  #######################################################
                  #                        -***-                        #
                  #          Department of theory and spectroscopy      #
                  #    Directorship and core code : Frank Neese         #
                  #        Max Planck Institute fuer Kohlenforschung    #
                  #                Kaiser Wilhelm Platz 1               #
                  #                 D-45470 Muelheim/Ruhr               #
                  #                      Germany                        #
                  #                                                     #
                  #                  All rights reserved                #
                  #                        -***-                        #
                  #######################################################


                         Program Version 5.0.3 -  RELEASE  -


 With contributions from (in alphabetic order):
   Daniel Aravena         : Magnetic Suceptibility
   Michael Atanasov       : Ab Initio Ligand Field Theory (pilot matlab implementation)
   Alexander A. Auer      : GIAO ZORA, VPT2 properties, NMR spectrum
   Ute Becker             : Parallelization
   Giovanni Bistoni       : ED, misc. LED, open-shell LED, HFLD
   Martin Brehm           : Molecular dynamics
   Dmytro Bykov           : SCF Hessian
   Vijay G. Chilkuri      : MRCI spin determinant printing, contributions to CSF-ICE
   Dipayan Datta          : RHF DLPNO-CCSD density
   Achintya Kumar Dutta   : EOM-CC, STEOM-CC
   Dmitry Ganyushin       : Spin-Orbit,Spin-Spin,Magnetic field MRCI
   Miquel Garcia          : C-PCM and meta-GGA Hessian, CC/C-PCM, Gaussian charge scheme
   Yang Guo               : DLPNO-NEVPT2, F12-NEVPT2, CIM, IAO-localization
   Andreas Hansen         : Spin unrestricted coupled pair/coupled cluster methods
   Benjamin Helmich-Paris : MC-RPA, TRAH-SCF, COSX integrals
   Lee Huntington         : MR-EOM, pCC
   Robert Izsak           : Overlap fitted RIJCOSX, COSX-SCS-MP3, EOM
   Marcus Kettner         : VPT2
   Christian Kollmar      : KDIIS, OOCD, Brueckner-CCSD(T), CCSD density, CASPT2, CASPT2-K
   Simone Kossmann        : Meta GGA functionals, TD-DFT gradient, OOMP2, MP2 Hessian
   Martin Krupicka        : Initial AUTO-CI
   Lucas Lang             : DCDCAS
   Marvin Lechner         : AUTO-CI (C++ implementation), FIC-MRCC
   Dagmar Lenk            : GEPOL surface, SMD
   Dimitrios Liakos       : Extrapolation schemes; Compound Job, initial MDCI parallelization
   Dimitrios Manganas     : Further ROCIS development; embedding schemes
   Dimitrios Pantazis     : SARC Basis sets
   Anastasios Papadopoulos: AUTO-CI, single reference methods and gradients
   Taras Petrenko         : DFT Hessian,TD-DFT gradient, ASA, ECA, R-Raman, ABS, FL, XAS/XES, NRVS
   Peter Pinski           : DLPNO-MP2, DLPNO-MP2 Gradient
   Christoph Reimann      : Effective Core Potentials
   Marius Retegan         : Local ZFS, SOC
   Christoph Riplinger    : Optimizer, TS searches, QM/MM, DLPNO-CCSD(T), (RO)-DLPNO pert. Triples
   Tobias Risthaus        : Range-separated hybrids, TD-DFT gradient, RPA, STAB
   Michael Roemelt        : Original ROCIS implementation
   Masaaki Saitow         : Open-shell DLPNO-CCSD energy and density
   Barbara Sandhoefer     : DKH picture change effects
   Avijit Sen             : IP-ROCIS
   Kantharuban Sivalingam : CASSCF convergence, NEVPT2, FIC-MRCI
   Bernardo de Souza      : ESD, SOC TD-DFT
   Georgi Stoychev        : AutoAux, RI-MP2 NMR, DLPNO-MP2 response
   Willem Van den Heuvel  : Paramagnetic NMR
   Boris Wezisla          : Elementary symmetry handling
   Frank Wennmohs         : Technical directorship


 We gratefully acknowledge several colleagues who have allowed us to
 interface, adapt or use parts of their codes:
   Stefan Grimme, W. Hujo, H. Kruse, P. Pracht,  : VdW corrections, initial TS optimization,
                  C. Bannwarth, S. Ehlert          DFT functionals, gCP, sTDA/sTD-DF
   Ed Valeev, F. Pavosevic, A. Kumar             : LibInt (2-el integral package), F12 methods
   Garnet Chan, S. Sharma, J. Yang, R. Olivares  : DMRG
   Ulf Ekstrom                                   : XCFun DFT Library
   Mihaly Kallay                                 : mrcc  (arbitrary order and MRCC methods)
   Jiri Pittner, Ondrej Demel                    : Mk-CCSD
   Frank Weinhold                                : gennbo (NPA and NBO analysis)
   Christopher J. Cramer and Donald G. Truhlar   : smd solvation model
   Lars Goerigk                                  : TD-DFT with DH, B97 family of functionals
   V. Asgeirsson, H. Jonsson                     : NEB implementation
   FAccTs GmbH                                   : IRC, NEB, NEB-TS, DLPNO-Multilevel, CI-OPT
                                                   MM, QMMM, 2- and 3-layer-ONIOM, Crystal-QMMM,
                                                   LR-CPCM, SF, NACMEs, symmetry and pop. for TD-DFT,
                                                   nearIR, NL-DFT gradient (VV10), updates on ESD,
                                                   ML-optimized integration grids
   S Lehtola, MJT Oliveira, MAL Marques          : LibXC Library
   Liviu Ungur et al                             : ANISO software


 Your calculation uses the libint2 library for the computation of 2-el integrals
 For citations please refer to: http://libint.valeyev.net

 Your ORCA version has been built with support for libXC version: 5.1.0
 For citations please refer to: https://tddft.org/programs/libxc/

 This ORCA versions uses:
   CBLAS   interface :  Fast vector & matrix operations
   LAPACKE interface :  Fast linear algebra routines
   SCALAPACK package :  Parallel linear algebra routines
   Shared memory     :  Shared parallel matrices
   BLAS/LAPACK       :  OpenBLAS 0.3.15  USE64BITINT DYNAMIC_ARCH NO_AFFINITY Zen SINGLE_THREADED
        Core in use  :  Zen
   Copyright (c) 2011-2014, The OpenBLAS Project


================================================================================

----- Orbital basis set information -----
Your calculation utilizes the basis: def2-SVP
   F. Weigend and R. Ahlrichs, Phys. Chem. Chem. Phys. 7, 3297 (2005).

================================================================================
                                        WARNINGS
                       Please study these warnings very carefully!
================================================================================


INFO   : the flag for use of the SHARK integral package has been found!

================================================================================
                                       INPUT FILE
================================================================================
NAME = ./ZINC000000000066/ZINC000000000066.inp
|  1> !RHF def2-SVP TightSCF PAL16 
|  2> *xyz 0 1
|  3> O 5.907139244636322 -0.7981289686504502 -1.226986746122104
|  4> C 5.376173168403825 -0.34359431411321845 -0.2305560685629726
|  5> O 6.104972412606627 0.21487566247496284 0.7526880608237023
|  6> C 3.9214250212208563 -0.3323264789677719 0.05357115859508842
|  7> C 3.051912094200585 -0.8725503688972622 -0.8960641915853562
|  8> C 1.66871569971559 -0.8805363472661689 -0.6681690928172225
|  9> C 1.1240665790893811 -0.3753929818310435 0.5153396212896288
| 10> N -0.24319730743921394 -0.2916986720473891 0.7942144294187339
| 11> C -1.2407789788957508 -1.0449187681477412 0.040453589785682496
| 12> O -2.30689718240635 -1.3637495038551244 0.9545229809019365
| 13> C -3.0572920545533573 -0.23118289047494317 1.4004069279955453
| 14> C -3.6707563975256017 0.557682146663912 0.2469518421086036
| 15> O -4.324236631716029 1.744104089330935 0.705875285948146
| 16> C -2.5815591689815656 0.9464705851164009 -0.7517360040806503
| 17> O -3.1809778386616885 1.5647406187983084 -1.906347033248476
| 18> C -1.817848971464095 -0.3010023643903713 -1.1933070295296502
| 19> O -0.8580677912113307 0.043133351102319334 -2.198071662517136
| 20> C 2.0125587868526207 0.1935666136281713 1.443785464355207
| 21> C 3.3956860901524433 0.2081791771238659 1.2275967399577916
| 22> H 7.026683832460463 0.1387781988883245 0.4284443801366566
| 23> H 3.4395855282458827 -1.2819063086618576 -1.826933208913319
| 24> H 1.0381510550465693 -1.2938065818001032 -1.4494091494629773
| 25> H -0.38676226020868826 -0.4562629326996545 1.7875784163656212
| 26> H -0.8234647586702506 -2.0071567487234416 -0.2766730334447458
| 27> H -2.437541332980104 0.41420277861985755 2.034478912020602
| 28> H -3.856274131357407 -0.6004572810792208 2.0532687209174134
| 29> H -4.426220403141175 -0.04963719821049067 -0.2668541717248029
| 30> H -5.054048483811053 1.4700347930387498 1.2900024327974688
| 31> H -1.902184416545416 1.697790718819606 -0.3317524232776038
| 32> H -3.7494303812193728 2.273280869349977 -1.542555479413189
| 33> H -2.5295887999150954 -0.9739341538631082 -1.689970773657585
| 34> H -1.292088527839071 0.7354055225827352 -2.7364612553539724
| 35> H 1.626774232605805 0.6439118963261627 2.356020870862485
| 36> H 4.045372073301152 0.6520858418166274 1.97719167331127
| 37> *
| 38> 
| 39>                          ****END OF INPUT****
================================================================================

                       ****************************
                       * Single Point Calculation *
                       ****************************

---------------------------------
CARTESIAN COORDINATES (ANGSTROEM)
---------------------------------
  O      5.907139   -0.798129   -1.226987
  C      5.376173   -0.343594   -0.230556
  O      6.104972    0.214876    0.752688
  C      3.921425   -0.332326    0.053571
  C      3.051912   -0.872550   -0.896064
  C      1.668716   -0.880536   -0.668169
  C      1.124067   -0.375393    0.515340
  N     -0.243197   -0.291699    0.794214
  C     -1.240779   -1.044919    0.040454
  O     -2.306897   -1.363750    0.954523
  C     -3.057292   -0.231183    1.400407
  C     -3.670756    0.557682    0.246952
  O     -4.324237    1.744104    0.705875
  C     -2.581559    0.946471   -0.751736
  O     -3.180978    1.564741   -1.906347
  C     -1.817849   -0.301002   -1.193307
  O     -0.858068    0.043133   -2.198072
  C      2.012559    0.193567    1.443785
  C      3.395686    0.208179    1.227597
  H      7.026684    0.138778    0.428444
  H      3.439586   -1.281906   -1.826933
  H      1.038151   -1.293807   -1.449409
  H     -0.386762   -0.456263    1.787578
  H     -0.823465   -2.007157   -0.276673
  H     -2.437541    0.414203    2.034479
  H     -3.856274   -0.600457    2.053269
  H     -4.426220   -0.049637   -0.266854
  H     -5.054048    1.470035    1.290002
  H     -1.902184    1.697791   -0.331752
  H     -3.749430    2.273281   -1.542555
  H     -2.529589   -0.973934   -1.689971
  H     -1.292089    0.735406   -2.736461
  H      1.626774    0.643912    2.356021
  H      4.045372    0.652086    1.977192

----------------------------
CARTESIAN COORDINATES (A.U.)
----------------------------
  NO LB      ZA    FRAG     MASS         X           Y           Z
   0 O     8.0000    0    15.999   11.162875   -1.508245   -2.318669
   1 C     6.0000    0    12.011   10.159495   -0.649299   -0.435688
   2 O     8.0000    0    15.999   11.536726    0.406056    1.422374
   3 C     6.0000    0    12.011    7.410419   -0.628006    0.101235
   4 C     6.0000    0    12.011    5.767278   -1.648881   -1.693316
   5 C     6.0000    0    12.011    3.153416   -1.663973   -1.262657
   6 C     6.0000    0    12.011    2.124178   -0.709390    0.973851
   7 N     7.0000    0    14.007   -0.459576   -0.551231    1.500848
   8 C     6.0000    0    12.011   -2.344732   -1.974610    0.076446
   9 O     8.0000    0    15.999   -4.359404   -2.577113    1.803787
  10 C     6.0000    0    12.011   -5.777445   -0.436872    2.646386
  11 C     6.0000    0    12.011   -6.936724    1.053867    0.466671
  12 O     8.0000    0    15.999   -8.171623    3.295879    1.333911
  13 C     6.0000    0    12.011   -4.878440    1.788570   -1.420575
  14 O     8.0000    0    15.999   -6.011177    2.956931   -3.602474
  15 C     6.0000    0    12.011   -3.435237   -0.568812   -2.255023
  16 O     8.0000    0    15.999   -1.621513    0.081510   -4.153753
  17 C     6.0000    0    12.011    3.803185    0.365788    2.728359
  18 C     6.0000    0    12.011    6.416917    0.393402    2.319822
  19 H     1.0000    0     1.008   13.278508    0.262253    0.809643
  20 H     1.0000    0     1.008    6.499875   -2.422452   -3.452403
  21 H     1.0000    0     1.008    1.961821   -2.444940   -2.738986
  22 H     1.0000    0     1.008   -0.730875   -0.862212    3.378034
  23 H     1.0000    0     1.008   -1.556123   -3.792977   -0.522836
  24 H     1.0000    0     1.008   -4.606286    0.782730    3.844608
  25 H     1.0000    0     1.008   -7.287302   -1.134700    3.880116
  26 H     1.0000    0     1.008   -8.364344   -0.093801   -0.504281
  27 H     1.0000    0     1.008   -9.550768    2.777963    2.437751
  28 H     1.0000    0     1.008   -3.594608    3.208359   -0.626921
  29 H     1.0000    0     1.008   -7.085397    4.295878   -2.915007
  30 H     1.0000    0     1.008   -4.780230   -1.840469   -3.193582
  31 H     1.0000    0     1.008   -2.441693    1.389715   -5.171162
  32 H     1.0000    0     1.008    3.074158    1.216817    4.452234
  33 H     1.0000    0     1.008    7.644645    1.232264    3.736351

--------------------------------
INTERNAL COORDINATES (ANGSTROEM)
--------------------------------
 O      0   0   0     0.000000000000     0.00000000     0.00000000
 C      1   0   0     1.217128103967     0.00000000     0.00000000
 O      2   1   0     1.345290329659   121.13449890     0.00000000
 C      2   1   3     1.482277779991   126.00865042   180.16803058
 C      4   2   1     1.396317256149   118.54499428   359.25756860
 C      5   4   2     1.401867403719   120.40229057   180.08263983
 C      6   5   4     1.397320779424   121.34704841   358.82435658
 N      7   6   5     1.397922183637   124.87885796   176.98597047
 C      8   7   6     1.459679796311   122.31183515    16.95447644
 O      9   8   7     1.440063857495   107.00357061   147.43597592
 C     10   9   8     1.429899329381   114.27292801    67.66367510
 C     11  10   9     1.526140616744   112.62434052    57.28829748
 O     12  11  10     1.430120334037   111.71327431   184.73024449
 C     12  11  10     1.528032874865   109.81371132   305.69964934
 O     14  12  11     1.440377452193   109.66293208   173.91703220
 C     14  12  11     1.527883174873   109.72132989    54.13126737
 O     16  14  12     1.431489179962   109.98106865   176.00297949
 C      7   6   5     1.405398558426   117.35322890     2.67183203
 C      4   2   1     1.395307798875   122.27755693   179.82243513
 H      3   2   1     0.980039147136   103.61849479     0.32563844
 H      5   4   2     1.088292288085   120.35950041   359.37329829
 H      6   5   4     1.085697970877   117.27405964   178.73303816
 H      8   7   6     1.017086182244   108.85716040   145.38751833
 H      9   8   7     1.095729156693   110.01821917    33.02454788
 H     11  10   9     1.096658971462   110.47826004   292.40454176
 H     11  10   9     1.095885238183   107.54666900   177.83833864
 H     12  11  10     1.097068489335   110.15928438    65.76286520
 H     13  12  11     0.974137486351   107.53890182   297.49456357
 H     14  12  11     1.096548314348   111.44670790   290.61387892
 H     15  14  12     0.978525357073   104.74684177    52.17322359
 H     16  14  12     1.098219309345   107.88149504    61.61418785
 H     17  16  14     0.978508105692   105.00387390   323.40219008
 H     18   7   6     1.088032183729   119.82118672   176.93568388
 H     19   4   2     1.086755523459   120.88678396     0.55155919

---------------------------
INTERNAL COORDINATES (A.U.)
---------------------------
 O      0   0   0     0.000000000000     0.00000000     0.00000000
 C      1   0   0     2.300038786396     0.00000000     0.00000000
 O      2   1   0     2.542230293668   121.13449890     0.00000000
 C      2   1   3     2.801099058579   126.00865042   180.16803058
 C      4   2   1     2.638657210189   118.54499428   359.25756860
 C      5   4   2     2.649145469100   120.40229057   180.08263983
 C      6   5   4     2.640553594348   121.34704841   358.82435658
 N      7   6   5     2.641690083607   124.87885796   176.98597047
 C      8   7   6     2.758395058247   122.31183515    16.95447644
 O      9   8   7     2.721326306024   107.00357061   147.43597592
 C     10   9   8     2.702118131607   114.27292801    67.66367510
 C     11  10   9     2.883987807501   112.62434052    57.28829748
 O     12  11  10     2.702535769881   111.71327431   184.73024449
 C     12  11  10     2.887563657123   109.81371132   305.69964934
 O     14  12  11     2.721918914120   109.66293208   173.91703220
 C     14  12  11     2.887280765136   109.72132989    54.13126737
 O     16  14  12     2.705122513799   109.98106865   176.00297949
 C      7   6   5     2.655818384434   117.35322890     2.67183203
 C      4   2   1     2.636749612399   122.27755693   179.82243513
 H      3   2   1     1.852005588609   103.61849479     0.32563844
 H      5   4   2     2.056574378140   120.35950041   359.37329829
 H      6   5   4     2.051671829111   117.27405964   178.73303816
 H      8   7   6     1.922014339036   108.85716040   145.38751833
 H      9   8   7     2.070628023102   110.01821917    33.02454788
 H     11  10   9     2.072385118372   110.47826004   292.40454176
 H     11  10   9     2.070922974373   107.54666900   177.83833864
 H     12  11  10     2.073158994997   110.15928438    65.76286520
 H     13  12  11     1.840853065990   107.53890182   297.49456357
 H     14  12  11     2.072176006731   111.44670790   290.61387892
 H     15  14  12     1.849144939965   104.74684177    52.17322359
 H     16  14  12     2.075333729646   107.88149504    61.61418785
 H     17  16  14     1.849112339579   105.00387390   323.40219008
 H     18   7   6     2.056082852139   119.82118672   176.93568388
 H     19   4   2     2.053670313863   120.88678396     0.55155919

---------------------
BASIS SET INFORMATION
---------------------
There are 4 groups of distinct atoms

 Group   1 Type O   : 7s4p1d contracted to 3s2p1d pattern {511/31/1}
 Group   2 Type C   : 7s4p1d contracted to 3s2p1d pattern {511/31/1}
 Group   3 Type N   : 7s4p1d contracted to 3s2p1d pattern {511/31/1}
 Group   4 Type H   : 4s1p contracted to 2s1p pattern {31/1}

Atom   0O    basis set group =>   1
Atom   1C    basis set group =>   2
Atom   2O    basis set group =>   1
Atom   3C    basis set group =>   2
Atom   4C    basis set group =>   2
Atom   5C    basis set group =>   2
Atom   6C    basis set group =>   2
Atom   7N    basis set group =>   3
Atom   8C    basis set group =>   2
Atom   9O    basis set group =>   1
Atom  10C    basis set group =>   2
Atom  11C    basis set group =>   2
Atom  12O    basis set group =>   1
Atom  13C    basis set group =>   2
Atom  14O    basis set group =>   1
Atom  15C    basis set group =>   2
Atom  16O    basis set group =>   1
Atom  17C    basis set group =>   2
Atom  18C    basis set group =>   2
Atom  19H    basis set group =>   4
Atom  20H    basis set group =>   4
Atom  21H    basis set group =>   4
Atom  22H    basis set group =>   4
Atom  23H    basis set group =>   4
Atom  24H    basis set group =>   4
Atom  25H    basis set group =>   4
Atom  26H    basis set group =>   4
Atom  27H    basis set group =>   4
Atom  28H    basis set group =>   4
Atom  29H    basis set group =>   4
Atom  30H    basis set group =>   4
Atom  31H    basis set group =>   4
Atom  32H    basis set group =>   4
Atom  33H    basis set group =>   4


           ************************************************************
           *        Program running with 16 parallel MPI-processes    *
           *              working on a common directory               *
           ************************************************************
------------------------------------------------------------------------------
                           ORCA GTO INTEGRAL CALCULATION
------------------------------------------------------------------------------
------------------------------------------------------------------------------
                   ___                                                        
                  /   \      - P O W E R E D   B Y -                         
                 /     \                                                     
                 |  |  |   _    _      __       _____    __    __             
                 |  |  |  | |  | |    /  \     |  _  \  |  |  /  |          
                  \  \/   | |  | |   /    \    | | | |  |  | /  /          
                 / \  \   | |__| |  /  /\  \   | |_| |  |  |/  /          
                |  |  |   |  __  | /  /__\  \  |    /   |      \           
                |  |  |   | |  | | |   __   |  |    \   |  |\   \          
                \     /   | |  | | |  |  |  |  | |\  \  |  | \   \       
                 \___/    |_|  |_| |__|  |__|  |_| \__\ |__|  \__/        
                                                                              
                      - O R C A' S   B I G   F R I E N D -                    
                                      &                                       
                       - I N T E G R A L  F E E D E R -                       
                                                                              
 v1 FN, 2020, v2 2021                                                         
------------------------------------------------------------------------------


Reading SHARK input file ./ZINC000000000066/ZINC000000000066.SHARKINP.tmp ... ok
----------------------
SHARK INTEGRAL PACKAGE
----------------------

Number of atoms                             ...     34
Number of basis functions                   ...    341
Number of shells                            ...    159
Maximum angular momentum                    ...      2
Integral batch strategy                     ... SHARK/LIBINT Hybrid
RI-J (if used) integral strategy            ... SPLIT-RIJ (Revised 2003 algorithm where possible)
Printlevel                                  ...      1
Contraction scheme used                     ... SEGMENTED contraction
Coulomb Range Separation                    ... NOT USED
Exchange Range Separation                   ... NOT USED
Finite Nucleus Model                        ... NOT USED
Auxiliary Coulomb fitting basis             ... NOT available
Auxiliary J/K fitting basis                 ... NOT available
Auxiliary Correlation fitting basis         ... NOT available
Auxiliary 'external' fitting basis          ... NOT available
Integral threshold                          ...     2.500000e-11
Primitive cut-off                           ...     2.500000e-12
Primitive pair pre-selection threshold      ...     2.500000e-12

Calculating pre-screening integrals         ... done (  0.0 sec) Dimension = 159
Organizing shell pair data                  ... done (  0.0 sec)
Shell pair information
Total number of shell pairs                 ...     12720
Shell pairs after pre-screening             ...      9334
Total number of primitive shell pairs       ...     46348
Primitive shell pairs kept                  ...     22422
          la=0 lb=0:   2887 shell pairs
          la=1 lb=0:   3459 shell pairs
          la=1 lb=1:   1078 shell pairs
          la=2 lb=0:   1116 shell pairs
          la=2 lb=1:    681 shell pairs
          la=2 lb=2:    113 shell pairs

Calculating one electron integrals          ... done (  0.0 sec)
Calculating Nuclear repulsion               ... done (  0.0 sec) ENN=   1462.651001004299 Eh

SHARK setup successfully completed in   0.2 seconds

Maximum memory used throughout the entire GTOINT-calculation: 15.2 MB


           ************************************************************
           *        Program running with 16 parallel MPI-processes    *
           *              working on a common directory               *
           ************************************************************
-------------------------------------------------------------------------------
                                 ORCA SCF
-------------------------------------------------------------------------------

------------
SCF SETTINGS
------------
Hamiltonian:
 Ab initio Hamiltonian  Method          .... Hartree-Fock(GTOs)


General Settings:
 Integral files         IntName         .... ./ZINC000000000066/ZINC000000000066
 Hartree-Fock type      HFTyp           .... RHF
 Total Charge           Charge          ....    0
 Multiplicity           Mult            ....    1
 Number of Electrons    NEL             ....  142
 Basis Dimension        Dim             ....  341
 Nuclear Repulsion      ENuc            ....   1462.6510010043 Eh

Convergence Acceleration:
 DIIS                   CNVDIIS         .... on
   Start iteration      DIISMaxIt       ....    12
   Startup error        DIISStart       ....  0.200000
   # of expansion vecs  DIISMaxEq       ....     5
   Bias factor          DIISBfac        ....   1.050
   Max. coefficient     DIISMaxC        ....  10.000
 Trust-Rad. Augm. Hess. CNVTRAH         .... auto
   Auto Start mean grad. ratio tolernc. ....  1.125000
   Auto Start start iteration           ....    20
   Auto Start num. interpolation iter.  ....    10
   Max. Number of Micro iterations      ....    16
   Max. Number of Macro iterations      .... Maxiter - #DIIS iter
   Number of Davidson start vectors     ....     2
   Converg. threshold I  (grad. norm)   ....   1.000e-05
   Converg. threshold II (energy diff.) ....   1.000e-08
   Grad. Scal. Fac. for Micro threshold ....   0.100
   Minimum threshold for Micro iter.    ....   0.010
   NR start threshold (gradient norm)   ....   0.001
   Initial trust radius                 ....   0.400
   Minimum AH scaling param. (alpha)    ....   1.000
   Maximum AH scaling param. (alpha)    .... 1000.000
   Orbital update algorithm             .... Taylor
   White noise on init. David. guess    .... on
   Maximum white noise                  ....   0.010
   Quad. conv. algorithm                .... NR
 SOSCF                  CNVSOSCF        .... on
   Start iteration      SOSCFMaxIt      ....   150
   Startup grad/error   SOSCFStart      ....  0.003300
 Level Shifting         CNVShift        .... on
   Level shift para.    LevelShift      ....    0.2500
   Turn off err/grad.   ShiftErr        ....    0.0010
 Zerner damping         CNVZerner       .... off
 Static damping         CNVDamp         .... on
   Fraction old density DampFac         ....    0.7000
   Max. Damping (<1)    DampMax         ....    0.9800
   Min. Damping (>=0)   DampMin         ....    0.0000
   Turn off err/grad.   DampErr         ....    0.1000
 Fernandez-Rico         CNVRico         .... off

SCF Procedure:
 Maximum # iterations   MaxIter         ....   125
 SCF integral mode      SCFMode         .... Direct
   Integral package                     .... SHARK and LIBINT hybrid scheme
 Reset frequency        DirectResetFreq ....    20
 Integral Threshold     Thresh          ....  2.500e-11 Eh
 Primitive CutOff       TCut            ....  2.500e-12 Eh

Convergence Tolerance:
 Convergence Check Mode ConvCheckMode   .... Total+1el-Energy
 Convergence forced     ConvForced      .... 0
 Energy Change          TolE            ....  1.000e-08 Eh
 1-El. energy change                    ....  1.000e-05 Eh
 Orbital Gradient       TolG            ....  1.000e-05
 Orbital Rotation angle TolX            ....  1.000e-05
 DIIS Error             TolErr          ....  5.000e-07


Diagonalization of the overlap matrix:
Smallest eigenvalue                        ... 2.584e-04
Time for diagonalization                   ...    0.014 sec
Threshold for overlap eigenvalues          ... 1.000e-08
Number of eigenvalues below threshold      ... 0
Time for construction of square roots      ...    0.007 sec
Total time needed                          ...    0.022 sec

Time for model grid setup =    0.143 sec

------------------------------
INITIAL GUESS: MODEL POTENTIAL
------------------------------
Loading Hartree-Fock densities                     ... done
Calculating cut-offs                               ... done
Initializing the effective Hamiltonian             ... done
Setting up the integral package (SHARK)            ... done
Starting the Coulomb interaction                   ... done (   0.0 sec)
Reading the grid                                   ... done
Mapping shells                                     ... done
Starting the XC term evaluation                    ... done (   0.0 sec)
Transforming the Hamiltonian                       ... done (   0.0 sec)
Diagonalizing the Hamiltonian                      ... done (   0.0 sec)
Back transforming the eigenvectors                 ... done (   0.0 sec)
Now organizing SCF variables                       ... done
                      ------------------
                      INITIAL GUESS DONE (   0.2 sec)
                      ------------------
--------------
SCF ITERATIONS
--------------
ITER       Energy         Delta-E        Max-DP      RMS-DP      [F,P]     Damp
               ***  Starting incremental Fock matrix formation  ***
  0   -965.4470101193   0.000000000000 0.06068339  0.00178268  0.2520760 0.7000
  1   -965.6506174001  -0.203607280863 0.04295016  0.00137928  0.1524084 0.7000
                               ***Turning on DIIS***
  2   -965.7741647612  -0.123547361034 0.10368932  0.00317223  0.0847760 0.0000
  3   -965.0160937018   0.758071059388 0.03540857  0.00072356  0.0513748 0.0000
  4   -966.1613460715  -1.145252369751 0.01109665  0.00025366  0.0096315 0.0000
  5   -966.0428973620   0.118448709550 0.00575284  0.00011112  0.0051628 0.0000
                      *** Initiating the SOSCF procedure ***
                           *** Shutting down DIIS ***
                      *** Re-Reading the Fockian *** 
                      *** Removing any level shift *** 
ITER      Energy       Delta-E        Grad      Rot      Max-DP    RMS-DP
  6   -966.03539513   0.0075022317  0.001409  0.001409  0.002003  0.000051
               *** Restarting incremental Fock matrix formation ***
  7   -966.03810484  -0.0027097071  0.000616  0.001313  0.001229  0.000025
  8   -966.03812141  -0.0000165728  0.000357  0.001300  0.001164  0.000026
  9   -966.03812667  -0.0000052630  0.000144  0.000226  0.000282  0.000006
 10   -966.03812736  -0.0000006823  0.000069  0.000144  0.000077  0.000002
 11   -966.03812744  -0.0000000835  0.000023  0.000090  0.000042  0.000001
 12   -966.03812746  -0.0000000187  0.000013  0.000049  0.000024  0.000001
 13   -966.03812746  -0.0000000035  0.000003  0.000010  0.000008  0.000000
                  ***Gradient check signals convergence***
              ***Rediagonalizing the Fockian in SOSCF/NRSCF***

               *****************************************************
               *                     SUCCESS                       *
               *           SCF CONVERGED AFTER  14 CYCLES          *
               *****************************************************


----------------
TOTAL SCF ENERGY
----------------

Total Energy       :         -966.03812746 Eh          -26287.23387 eV

Components:
Nuclear Repulsion  :         1462.65100100 Eh           39800.75717 eV
Electronic Energy  :        -2428.68912847 Eh          -66087.99103 eV
One Electron Energy:        -4230.19715174 Eh         -115109.51655 eV
Two Electron Energy:         1801.50802328 Eh           49021.52552 eV

Virial components:
Potential Energy   :        -1927.97113093 Eh          -52462.76163 eV
Kinetic Energy     :          961.93300347 Eh           26175.52776 eV
Virial Ratio       :            2.00426758


---------------
SCF CONVERGENCE
---------------

  Last Energy change         ...   -1.0978e-09  Tolerance :   1.0000e-08
  Last MAX-Density change    ...    5.1748e-06  Tolerance :   1.0000e-07
  Last RMS-Density change    ...    9.8619e-08  Tolerance :   5.0000e-09
  Last Orbital Gradient      ...    1.2326e-06  Tolerance :   1.0000e-05
  Last Orbital Rotation      ...    3.7180e-06  Tolerance :   1.0000e-05

             **** THE GBW FILE WAS UPDATED (./ZINC000000000066/ZINC000000000066.gbw) ****
             **** DENSITY ./ZINC000000000066/ZINC000000000066.scfp WAS UPDATED ****
             **** ENERGY FILE WAS UPDATED (./ZINC000000000066/ZINC000000000066.en.tmp) ****
             **** THE GBW FILE WAS UPDATED (./ZINC000000000066/ZINC000000000066.gbw) ****
             **** DENSITY ./ZINC000000000066/ZINC000000000066.scfp WAS UPDATED ****
----------------
ORBITAL ENERGIES
----------------

  NO   OCC          E(Eh)            E(eV) 
   0   2.0000     -20.599466      -560.5400 
   1   2.0000     -20.586131      -560.1771 
   2   2.0000     -20.584114      -560.1222 
   3   2.0000     -20.566228      -559.6355 
   4   2.0000     -20.558846      -559.4346 
   5   2.0000     -20.529261      -558.6296 
   6   2.0000     -15.583307      -424.0433 
   7   2.0000     -11.381913      -309.7176 
   8   2.0000     -11.345203      -308.7187 
   9   2.0000     -11.307066      -307.6809 
  10   2.0000     -11.306093      -307.6544 
  11   2.0000     -11.300497      -307.5022 
  12   2.0000     -11.296654      -307.3976 
  13   2.0000     -11.296142      -307.3837 
  14   2.0000     -11.255120      -306.2674 
  15   2.0000     -11.252014      -306.1829 
  16   2.0000     -11.238586      -305.8175 
  17   2.0000     -11.238542      -305.8163 
  18   2.0000     -11.232810      -305.6603 
  19   2.0000      -1.441923       -39.2367 
  20   2.0000      -1.399744       -38.0890 
  21   2.0000      -1.375618       -37.4325 
  22   2.0000      -1.357715       -36.9453 
  23   2.0000      -1.332180       -36.2505 
  24   2.0000      -1.326995       -36.1094 
  25   2.0000      -1.240008       -33.7423 
  26   2.0000      -1.139432       -31.0055 
  27   2.0000      -1.059131       -28.8204 
  28   2.0000      -1.038370       -28.2555 
  29   2.0000      -1.010728       -27.5033 
  30   2.0000      -0.998361       -27.1668 
  31   2.0000      -0.895420       -24.3656 
  32   2.0000      -0.881179       -23.9781 
  33   2.0000      -0.867513       -23.6062 
  34   2.0000      -0.835068       -22.7234 
  35   2.0000      -0.799457       -21.7543 
  36   2.0000      -0.780504       -21.2386 
  37   2.0000      -0.746603       -20.3161 
  38   2.0000      -0.734249       -19.9799 
  39   2.0000      -0.718990       -19.5647 
  40   2.0000      -0.709465       -19.3055 
  41   2.0000      -0.700464       -19.0606 
  42   2.0000      -0.687407       -18.7053 
  43   2.0000      -0.680268       -18.5110 
  44   2.0000      -0.665716       -18.1151 
  45   2.0000      -0.645520       -17.5655 
  46   2.0000      -0.641825       -17.4650 
  47   2.0000      -0.628324       -17.0976 
  48   2.0000      -0.627176       -17.0663 
  49   2.0000      -0.620069       -16.8729 
  50   2.0000      -0.603487       -16.4217 
  51   2.0000      -0.598816       -16.2946 
  52   2.0000      -0.593013       -16.1367 
  53   2.0000      -0.590067       -16.0565 
  54   2.0000      -0.584551       -15.9064 
  55   2.0000      -0.571402       -15.5486 
  56   2.0000      -0.549668       -14.9572 
  57   2.0000      -0.546197       -14.8628 
  58   2.0000      -0.528680       -14.3861 
  59   2.0000      -0.511613       -13.9217 
  60   2.0000      -0.506473       -13.7818 
  61   2.0000      -0.499257       -13.5855 
  62   2.0000      -0.488908       -13.3039 
  63   2.0000      -0.475367       -12.9354 
  64   2.0000      -0.462536       -12.5863 
  65   2.0000      -0.451261       -12.2794 
  66   2.0000      -0.449153       -12.2221 
  67   2.0000      -0.445435       -12.1209 
  68   2.0000      -0.435095       -11.8395 
  69   2.0000      -0.342749        -9.3267 
  70   2.0000      -0.313417        -8.5285 
  71   0.0000       0.098873         2.6905 
  72   0.0000       0.125921         3.4265 
  73   0.0000       0.148325         4.0361 
  74   0.0000       0.175338         4.7712 
  75   0.0000       0.184475         5.0198 
  76   0.0000       0.192832         5.2472 
  77   0.0000       0.197738         5.3807 
  78   0.0000       0.214252         5.8301 
  79   0.0000       0.222701         6.0600 
  80   0.0000       0.229766         6.2522 
  81   0.0000       0.238868         6.4999 
  82   0.0000       0.243712         6.6317 
  83   0.0000       0.252658         6.8752 
  84   0.0000       0.259304         7.0560 
  85   0.0000       0.270518         7.3612 
  86   0.0000       0.282052         7.6750 
  87   0.0000       0.283418         7.7122 
  88   0.0000       0.290025         7.8920 
  89   0.0000       0.317022         8.6266 
  90   0.0000       0.356052         9.6887 
  91   0.0000       0.371158        10.0997 
  92   0.0000       0.376960        10.2576 
  93   0.0000       0.379831        10.3357 
  94   0.0000       0.385947        10.5021 
  95   0.0000       0.388071        10.5600 
  96   0.0000       0.401452        10.9241 
  97   0.0000       0.426318        11.6007 
  98   0.0000       0.429619        11.6905 
  99   0.0000       0.434711        11.8291 
 100   0.0000       0.451583        12.2882 
 101   0.0000       0.458398        12.4737 
 102   0.0000       0.461174        12.5492 
 103   0.0000       0.476547        12.9675 
 104   0.0000       0.495612        13.4863 
 105   0.0000       0.498498        13.5648 
 106   0.0000       0.523947        14.2573 
 107   0.0000       0.547053        14.8861 
 108   0.0000       0.566709        15.4209 
 109   0.0000       0.595006        16.1909 
 110   0.0000       0.626352        17.0439 
 111   0.0000       0.635441        17.2912 
 112   0.0000       0.645560        17.5666 
 113   0.0000       0.653709        17.7883 
 114   0.0000       0.665173        18.1003 
 115   0.0000       0.672642        18.3035 
 116   0.0000       0.684820        18.6349 
 117   0.0000       0.688994        18.7485 
 118   0.0000       0.702760        19.1231 
 119   0.0000       0.709121        19.2962 
 120   0.0000       0.715320        19.4648 
 121   0.0000       0.731037        19.8925 
 122   0.0000       0.735787        20.0218 
 123   0.0000       0.740110        20.1394 
 124   0.0000       0.756981        20.5985 
 125   0.0000       0.764749        20.8099 
 126   0.0000       0.774234        21.0680 
 127   0.0000       0.779172        21.2023 
 128   0.0000       0.797639        21.7049 
 129   0.0000       0.806981        21.9591 
 130   0.0000       0.813477        22.1358 
 131   0.0000       0.819469        22.2989 
 132   0.0000       0.828370        22.5411 
 133   0.0000       0.833558        22.6823 
 134   0.0000       0.842829        22.9345 
 135   0.0000       0.851925        23.1821 
 136   0.0000       0.860460        23.4143 
 137   0.0000       0.864331        23.5197 
 138   0.0000       0.867038        23.5933 
 139   0.0000       0.875323        23.8187 
 140   0.0000       0.880815        23.9682 
 141   0.0000       0.883318        24.0363 
 142   0.0000       0.891451        24.2576 
 143   0.0000       0.899248        24.4698 
 144   0.0000       0.901937        24.5429 
 145   0.0000       0.912420        24.8282 
 146   0.0000       0.914734        24.8912 
 147   0.0000       0.920583        25.0503 
 148   0.0000       0.925539        25.1852 
 149   0.0000       0.934290        25.4233 
 150   0.0000       0.949589        25.8396 
 151   0.0000       0.956637        26.0314 
 152   0.0000       0.957371        26.0514 
 153   0.0000       0.970555        26.4101 
 154   0.0000       0.980471        26.6800 
 155   0.0000       0.986381        26.8408 
 156   0.0000       1.003257        27.3000 
 157   0.0000       1.016288        27.6546 
 158   0.0000       1.017675        27.6923 
 159   0.0000       1.060469        28.8568 
 160   0.0000       1.061763        28.8920 
 161   0.0000       1.091361        29.6975 
 162   0.0000       1.098311        29.8866 
 163   0.0000       1.115889        30.3649 
 164   0.0000       1.159309        31.5464 
 165   0.0000       1.194349        32.4999 
 166   0.0000       1.206810        32.8390 
 167   0.0000       1.219190        33.1758 
 168   0.0000       1.240514        33.7561 
 169   0.0000       1.249511        34.0009 
 170   0.0000       1.254972        34.1495 
 171   0.0000       1.265455        34.4348 
 172   0.0000       1.278041        34.7773 
 173   0.0000       1.296058        35.2675 
 174   0.0000       1.321787        35.9677 
 175   0.0000       1.342924        36.5428 
 176   0.0000       1.350824        36.7578 
 177   0.0000       1.352578        36.8055 
 178   0.0000       1.382760        37.6268 
 179   0.0000       1.391661        37.8690 
 180   0.0000       1.408114        38.3167 
 181   0.0000       1.416777        38.5525 
 182   0.0000       1.431113        38.9426 
 183   0.0000       1.441627        39.2287 
 184   0.0000       1.454874        39.5891 
 185   0.0000       1.466967        39.9182 
 186   0.0000       1.482281        40.3349 
 187   0.0000       1.491214        40.5780 
 188   0.0000       1.492476        40.6123 
 189   0.0000       1.501642        40.8618 
 190   0.0000       1.506363        40.9902 
 191   0.0000       1.523220        41.4489 
 192   0.0000       1.535053        41.7709 
 193   0.0000       1.547482        42.1091 
 194   0.0000       1.555008        42.3139 
 195   0.0000       1.558022        42.3959 
 196   0.0000       1.577133        42.9160 
 197   0.0000       1.596819        43.4517 
 198   0.0000       1.609958        43.8092 
 199   0.0000       1.624061        44.1929 
 200   0.0000       1.627826        44.2954 
 201   0.0000       1.653001        44.9804 
 202   0.0000       1.653824        45.0028 
 203   0.0000       1.665373        45.3171 
 204   0.0000       1.697844        46.2007 
 205   0.0000       1.699215        46.2380 
 206   0.0000       1.738116        47.2965 
 207   0.0000       1.751077        47.6492 
 208   0.0000       1.764300        48.0090 
 209   0.0000       1.790887        48.7325 
 210   0.0000       1.793302        48.7982 
 211   0.0000       1.828535        49.7570 
 212   0.0000       1.853478        50.4357 
 213   0.0000       1.874175        50.9989 
 214   0.0000       1.884196        51.2716 
 215   0.0000       1.896208        51.5984 
 216   0.0000       1.915836        52.1326 
 217   0.0000       1.928904        52.4882 
 218   0.0000       1.952109        53.1196 
 219   0.0000       1.960017        53.3348 
 220   0.0000       1.972182        53.6658 
 221   0.0000       1.977121        53.8002 
 222   0.0000       2.002656        54.4950 
 223   0.0000       2.007993        54.6403 
 224   0.0000       2.019306        54.9481 
 225   0.0000       2.021022        54.9948 
 226   0.0000       2.030195        55.2444 
 227   0.0000       2.034791        55.3695 
 228   0.0000       2.036383        55.4128 
 229   0.0000       2.052815        55.8599 
 230   0.0000       2.060537        56.0701 
 231   0.0000       2.067884        56.2700 
 232   0.0000       2.069879        56.3243 
 233   0.0000       2.076527        56.5052 
 234   0.0000       2.095538        57.0225 
 235   0.0000       2.104667        57.2709 
 236   0.0000       2.109175        57.3936 
 237   0.0000       2.122678        57.7610 
 238   0.0000       2.137522        58.1649 
 239   0.0000       2.151794        58.5533 
 240   0.0000       2.172628        59.1202 
 241   0.0000       2.182675        59.3936 
 242   0.0000       2.191301        59.6283 
 243   0.0000       2.196926        59.7814 
 244   0.0000       2.228571        60.6425 
 245   0.0000       2.233151        60.7671 
 246   0.0000       2.243677        61.0535 
 247   0.0000       2.258123        61.4466 
 248   0.0000       2.259864        61.4940 
 249   0.0000       2.272457        61.8367 
 250   0.0000       2.278792        62.0091 
 251   0.0000       2.287964        62.2587 
 252   0.0000       2.302041        62.6417 
 253   0.0000       2.325637        63.2838 
 254   0.0000       2.334195        63.5167 
 255   0.0000       2.342915        63.7540 
 256   0.0000       2.369593        64.4799 
 257   0.0000       2.377929        64.7067 
 258   0.0000       2.384018        64.8724 
 259   0.0000       2.420985        65.8784 
 260   0.0000       2.438521        66.3555 
 261   0.0000       2.460339        66.9492 
 262   0.0000       2.461244        66.9738 
 263   0.0000       2.474612        67.3376 
 264   0.0000       2.487889        67.6989 
 265   0.0000       2.495552        67.9074 
 266   0.0000       2.501962        68.0819 
 267   0.0000       2.512447        68.3672 
 268   0.0000       2.523389        68.6649 
 269   0.0000       2.536928        69.0333 
 270   0.0000       2.538518        69.0766 
 271   0.0000       2.558445        69.6188 
 272   0.0000       2.600811        70.7717 
 273   0.0000       2.608348        70.9767 
 274   0.0000       2.614791        71.1521 
 275   0.0000       2.625318        71.4385 
 276   0.0000       2.638326        71.7925 
 277   0.0000       2.646406        72.0124 
 278   0.0000       2.660376        72.3925 
 279   0.0000       2.673227        72.7422 
 280   0.0000       2.685550        73.0775 
 281   0.0000       2.728435        74.2445 
 282   0.0000       2.734666        74.4140 
 283   0.0000       2.758841        75.0719 
 284   0.0000       2.822399        76.8014 
 285   0.0000       2.841114        77.3106 
 286   0.0000       2.860518        77.8387 
 287   0.0000       2.871546        78.1387 
 288   0.0000       2.902253        78.9743 
 289   0.0000       2.913792        79.2883 
 290   0.0000       2.958316        80.4999 
 291   0.0000       2.968719        80.7830 
 292   0.0000       2.987359        81.2902 
 293   0.0000       3.014086        82.0175 
 294   0.0000       3.046631        82.9031 
 295   0.0000       3.065343        83.4122 
 296   0.0000       3.091747        84.1307 
 297   0.0000       3.104768        84.4850 
 298   0.0000       3.127089        85.0924 
 299   0.0000       3.173665        86.3598 
 300   0.0000       3.179336        86.5141 
 301   0.0000       3.205824        87.2349 
 302   0.0000       3.216972        87.5383 
 303   0.0000       3.233529        87.9888 
 304   0.0000       3.237918        88.1082 
 305   0.0000       3.252135        88.4951 
 306   0.0000       3.258705        88.6739 
 307   0.0000       3.264312        88.8265 
 308   0.0000       3.288585        89.4870 
 309   0.0000       3.303497        89.8927 
 310   0.0000       3.314396        90.1893 
 311   0.0000       3.321420        90.3804 
 312   0.0000       3.338964        90.8578 
 313   0.0000       3.355929        91.3195 
 314   0.0000       3.367378        91.6310 
 315   0.0000       3.373152        91.7881 
 316   0.0000       3.397508        92.4509 
 317   0.0000       3.418588        93.0245 
 318   0.0000       3.437892        93.5498 
 319   0.0000       3.452413        93.9449 
 320   0.0000       3.501947        95.2928 
 321   0.0000       3.513582        95.6094 
 322   0.0000       3.519974        95.7834 
 323   0.0000       3.532252        96.1175 
 324   0.0000       3.570361        97.1545 
 325   0.0000       3.584144        97.5295 
 326   0.0000       3.619368        98.4880 
 327   0.0000       3.651590        99.3648 
 328   0.0000       3.688618       100.3724 
 329   0.0000       3.737417       101.7003 
 330   0.0000       3.749176       102.0203 
 331   0.0000       3.783425       102.9522 
 332   0.0000       3.816668       103.8568 
 333   0.0000       3.883121       105.6651 
 334   0.0000       3.924385       106.7879 
 335   0.0000       4.013385       109.2098 
 336   0.0000       4.086189       111.1909 
 337   0.0000       4.146241       112.8249 
 338   0.0000       4.177950       113.6878 
 339   0.0000       4.192747       114.0904 
 340   0.0000       4.216960       114.7493 

                    ********************************
                    * MULLIKEN POPULATION ANALYSIS *
                    ********************************

-----------------------
MULLIKEN ATOMIC CHARGES
-----------------------
   0 O :   -0.419151
   1 C :    0.582227
   2 O :   -0.355995
   3 C :   -0.324516
   4 C :    0.067186
   5 C :   -0.106541
   6 C :    0.218698
   7 N :   -0.424642
   8 C :    0.368546
   9 O :   -0.609738
  10 C :    0.326730
  11 C :    0.150457
  12 O :   -0.464859
  13 C :    0.169496
  14 O :   -0.485529
  15 C :    0.310357
  16 O :   -0.457339
  17 C :   -0.102742
  18 C :    0.065083
  19 H :    0.223198
  20 H :    0.068804
  21 H :    0.054122
  22 H :    0.168306
  23 H :    0.051439
  24 H :    0.028099
  25 H :    0.033845
  26 H :    0.036720
  27 H :    0.206934
  28 H :    0.053791
  29 H :    0.220511
  30 H :    0.035285
  31 H :    0.224800
  32 H :    0.024727
  33 H :    0.061691
Sum of atomic charges:   -0.0000000

--------------------------------
MULLIKEN REDUCED ORBITAL CHARGES
--------------------------------
  0 O s       :     3.771673  s :     3.771673
      pz      :     1.421839  p :     4.626967
      px      :     1.719141
      py      :     1.485987
      dz2     :     0.006307  d :     0.020511
      dxz     :     0.005243
      dyz     :     0.005294
      dx2y2   :     0.001507
      dxy     :     0.002160
  1 C s       :     2.951354  s :     2.951354
      pz      :     0.739959  p :     2.310440
      px      :     0.888543
      py      :     0.681938
      dz2     :     0.040369  d :     0.155979
      dxz     :     0.044551
      dyz     :     0.028750
      dx2y2   :     0.021914
      dxy     :     0.020394
  2 O s       :     3.715792  s :     3.715792
      pz      :     1.603295  p :     4.624538
      px      :     1.248150
      py      :     1.773093
      dz2     :     0.003222  d :     0.015665
      dxz     :     0.005592
      dyz     :     0.003385
      dx2y2   :     0.002163
      dxy     :     0.001303
  3 C s       :     3.101857  s :     3.101857
      pz      :     1.056112  p :     3.175024
      px      :     0.988755
      py      :     1.130156
      dz2     :     0.012305  d :     0.047635
      dxz     :     0.012608
      dyz     :     0.007477
      dx2y2   :     0.010015
      dxy     :     0.005230
  4 C s       :     3.159600  s :     3.159600
      pz      :     0.935153  p :     2.728391
      px      :     0.905083
      py      :     0.888155
      dz2     :     0.008562  d :     0.044822
      dxz     :     0.013606
      dyz     :     0.004920
      dx2y2   :     0.008206
      dxy     :     0.009528
  5 C s       :     3.179090  s :     3.179090
      pz      :     0.948882  p :     2.886800
      px      :     0.908383
      py      :     1.029534
      dz2     :     0.008844  d :     0.040651
      dxz     :     0.012758
      dyz     :     0.005410
      dx2y2   :     0.007079
      dxy     :     0.006561
  6 C s       :     2.943824  s :     2.943824
      pz      :     1.042210  p :     2.763642
      px      :     0.826054
      py      :     0.895377
      dz2     :     0.014738  d :     0.073836
      dxz     :     0.018640
      dyz     :     0.008053
      dx2y2   :     0.014143
      dxy     :     0.018262
  7 N s       :     3.468483  s :     3.468483
      pz      :     1.118037  p :     3.930366
      px      :     1.122812
      py      :     1.689517
      dz2     :     0.006451  d :     0.025792
      dxz     :     0.004982
      dyz     :     0.003497
      dx2y2   :     0.005209
      dxy     :     0.005655
  8 C s       :     3.013946  s :     3.013946
      pz      :     0.788911  p :     2.523801
      px      :     0.724082
      py      :     1.010807
      dz2     :     0.015136  d :     0.093707
      dxz     :     0.028217
      dyz     :     0.016589
      dx2y2   :     0.016062
      dxy     :     0.017704
  9 O s       :     3.827824  s :     3.827824
      pz      :     1.657350  p :     4.765062
      px      :     1.519195
      py      :     1.588517
      dz2     :     0.002143  d :     0.016851
      dxz     :     0.003426
      dyz     :     0.003092
      dx2y2   :     0.003461
      dxy     :     0.004728
 10 C s       :     2.969775  s :     2.969775
      pz      :     0.949751  p :     2.633160
      px      :     0.911325
      py      :     0.772085
      dz2     :     0.006412  d :     0.070335
      dxz     :     0.015953
      dyz     :     0.019115
      dx2y2   :     0.009154
      dxy     :     0.019701
 11 C s       :     3.056260  s :     3.056260
      pz      :     0.950891  p :     2.713261
      px      :     0.981762
      py      :     0.780608
      dz2     :     0.008054  d :     0.080022
      dxz     :     0.018570
      dyz     :     0.019956
      dx2y2   :     0.011496
      dxy     :     0.021946
 12 O s       :     3.762580  s :     3.762580
      pz      :     1.657712  p :     4.688495
      px      :     1.488996
      py      :     1.541787
      dz2     :     0.001353  d :     0.013785
      dxz     :     0.002210
      dyz     :     0.002876
      dx2y2   :     0.003332
      dxy     :     0.004013
 13 C s       :     3.092150  s :     3.092150
      pz      :     0.752216  p :     2.659860
      px      :     0.923484
      py      :     0.984160
      dz2     :     0.013426  d :     0.078494
      dxz     :     0.021745
      dyz     :     0.018070
      dx2y2   :     0.008060
      dxy     :     0.017192
 14 O s       :     3.768526  s :     3.768526
      pz      :     1.541866  p :     4.703484
      px      :     1.636204
      py      :     1.525414
      dz2     :     0.003457  d :     0.013519
      dxz     :     0.003666
      dyz     :     0.004141
      dx2y2   :     0.000489
      dxy     :     0.001766
 15 C s       :     3.014127  s :     3.014127
      pz      :     0.818526  p :     2.597197
      px      :     0.816622
      py      :     0.962049
      dz2     :     0.014002  d :     0.078319
      dxz     :     0.021805
      dyz     :     0.015346
      dx2y2   :     0.008397
      dxy     :     0.018769
 16 O s       :     3.760240  s :     3.760240
      pz      :     1.476191  p :     4.683319
      px      :     1.596839
      py      :     1.610289
      dz2     :     0.001175  d :     0.013780
      dxz     :     0.005611
      dyz     :     0.001455
      dx2y2   :     0.002178
      dxy     :     0.003361
 17 C s       :     3.171987  s :     3.171987
      pz      :     0.939255  p :     2.890213
      px      :     0.912075
      py      :     1.038883
      dz2     :     0.007640  d :     0.040542
      dxz     :     0.012757
      dyz     :     0.004521
      dx2y2   :     0.007637
      dxy     :     0.007986
 18 C s       :     3.152350  s :     3.152350
      pz      :     0.937524  p :     2.737632
      px      :     0.893302
      py      :     0.906806
      dz2     :     0.009567  d :     0.044935
      dxz     :     0.012945
      dyz     :     0.006171
      dx2y2   :     0.007515
      dxy     :     0.008737
 19 H s       :     0.707746  s :     0.707746
      pz      :     0.014737  p :     0.069056
      px      :     0.040241
      py      :     0.014078
 20 H s       :     0.905026  s :     0.905026
      pz      :     0.015429  p :     0.026169
      px      :     0.005110
      py      :     0.005631
 21 H s       :     0.919202  s :     0.919202
      pz      :     0.012510  p :     0.026676
      px      :     0.008130
      py      :     0.006037
 22 H s       :     0.785232  s :     0.785232
      pz      :     0.028279  p :     0.046462
      px      :     0.006186
      py      :     0.011997
 23 H s       :     0.926107  s :     0.926107
      pz      :     0.003320  p :     0.022455
      px      :     0.003893
      py      :     0.015242
 24 H s       :     0.947964  s :     0.947964
      pz      :     0.008032  p :     0.023937
      px      :     0.007604
      py      :     0.008301
 25 H s       :     0.942149  s :     0.942149
      pz      :     0.008882  p :     0.024006
      px      :     0.010877
      py      :     0.004247
 26 H s       :     0.941512  s :     0.941512
      pz      :     0.005827  p :     0.021769
      px      :     0.009478
      py      :     0.006464
 27 H s       :     0.723646  s :     0.723646
      pz      :     0.026059  p :     0.069420
      px      :     0.030195
      py      :     0.013166
 28 H s       :     0.924060  s :     0.924060
      pz      :     0.003876  p :     0.022149
      px      :     0.008691
      py      :     0.009583
 29 H s       :     0.709975  s :     0.709975
      pz      :     0.015209  p :     0.069514
      px      :     0.025349
      py      :     0.028957
 30 H s       :     0.942737  s :     0.942737
      pz      :     0.005386  p :     0.021978
      px      :     0.008388
      py      :     0.008204
 31 H s       :     0.704547  s :     0.704547
      pz      :     0.022575  p :     0.070653
      px      :     0.017987
      py      :     0.030091
 32 H s       :     0.949566  s :     0.949566
      pz      :     0.014323  p :     0.025707
      px      :     0.004284
      py      :     0.007100
 33 H s       :     0.912197  s :     0.912197
      pz      :     0.010797  p :     0.026112
      px      :     0.009094
      py      :     0.006221


                     *******************************
                     * LOEWDIN POPULATION ANALYSIS *
                     *******************************

----------------------
LOEWDIN ATOMIC CHARGES
----------------------
   0 O :   -0.293181
   1 C :    0.213032
   2 O :   -0.108134
   3 C :   -0.138507
   4 C :    0.054810
   5 C :   -0.069743
   6 C :    0.078429
   7 N :   -0.109589
   8 C :    0.184727
   9 O :   -0.248635
  10 C :    0.115001
  11 C :    0.079316
  12 O :   -0.192641
  13 C :    0.089227
  14 O :   -0.206654
  15 C :    0.092458
  16 O :   -0.190061
  17 C :   -0.073548
  18 C :    0.035063
  19 H :    0.113993
  20 H :    0.043317
  21 H :    0.029197
  22 H :    0.079045
  23 H :    0.014807
  24 H :    0.005662
  25 H :    0.015721
  26 H :    0.010459
  27 H :    0.092557
  28 H :    0.016911
  29 H :    0.095960
  30 H :    0.013421
  31 H :    0.096962
  32 H :    0.022892
  33 H :    0.037727

-------------------------------
LOEWDIN REDUCED ORBITAL CHARGES
-------------------------------
  0 O s       :     3.548393  s :     3.548393
      pz      :     1.500771  p :     4.713410
      px      :     1.723351
      py      :     1.489287
      dz2     :     0.009140  d :     0.031377
      dxz     :     0.009246
      dyz     :     0.008076
      dx2y2   :     0.001901
      dxy     :     0.003015
  1 C s       :     2.830764  s :     2.830764
      pz      :     0.904295  p :     2.645012
      px      :     0.997465
      py      :     0.743251
      dz2     :     0.080972  d :     0.311192
      dxz     :     0.091501
      dyz     :     0.057904
      dx2y2   :     0.042149
      dxy     :     0.038667
  2 O s       :     3.431307  s :     3.431307
      pz      :     1.623100  p :     4.649502
      px      :     1.290013
      py      :     1.736389
      dz2     :     0.004666  d :     0.027325
      dxz     :     0.010032
      dyz     :     0.004628
      dx2y2   :     0.005491
      dxy     :     0.002508
  3 C s       :     2.845005  s :     2.845005
      pz      :     1.078596  p :     3.182963
      px      :     1.019868
      py      :     1.084499
      dz2     :     0.028178  d :     0.110539
      dxz     :     0.031423
      dyz     :     0.016307
      dx2y2   :     0.022882
      dxy     :     0.011749
  4 C s       :     2.853708  s :     2.853708
      pz      :     1.022617  p :     2.991849
      px      :     1.055407
      py      :     0.913825
      dz2     :     0.019823  d :     0.099634
      dxz     :     0.031587
      dyz     :     0.009978
      dx2y2   :     0.018488
      dxy     :     0.019757
  5 C s       :     2.847510  s :     2.847510
      pz      :     1.039727  p :     3.129067
      px      :     1.052448
      py      :     1.036893
      dz2     :     0.020315  d :     0.093167
      dxz     :     0.031963
      dyz     :     0.011380
      dx2y2   :     0.015873
      dxy     :     0.013635
  6 C s       :     2.828898  s :     2.828898
      pz      :     1.062485  p :     2.936171
      px      :     0.952534
      py      :     0.921152
      dz2     :     0.031744  d :     0.156502
      dxz     :     0.040903
      dyz     :     0.016432
      dx2y2   :     0.030051
      dxy     :     0.037372
  7 N s       :     3.091255  s :     3.091255
      pz      :     1.160017  p :     3.963846
      px      :     1.167284
      py      :     1.636546
      dz2     :     0.015621  d :     0.054488
      dxz     :     0.012273
      dyz     :     0.005655
      dx2y2   :     0.010899
      dxy     :     0.010040
  8 C s       :     2.838544  s :     2.838544
      pz      :     0.914942  p :     2.783470
      px      :     0.842559
      py      :     1.025969
      dz2     :     0.029590  d :     0.193260
      dxz     :     0.057340
      dyz     :     0.035968
      dx2y2   :     0.032310
      dxy     :     0.038051
  9 O s       :     3.480184  s :     3.480184
      pz      :     1.639444  p :     4.741452
      px      :     1.509225
      py      :     1.592782
      dz2     :     0.003415  d :     0.027000
      dxz     :     0.005924
      dyz     :     0.004742
      dx2y2   :     0.005477
      dxy     :     0.007441
 10 C s       :     2.838369  s :     2.838369
      pz      :     1.012048  p :     2.895178
      px      :     0.984940
      py      :     0.898190
      dz2     :     0.013240  d :     0.151452
      dxz     :     0.034911
      dyz     :     0.042138
      dx2y2   :     0.019580
      dxy     :     0.041583
 11 C s       :     2.846201  s :     2.846201
      pz      :     1.018048  p :     2.907967
      px      :     1.005542
      py      :     0.884377
      dz2     :     0.016466  d :     0.166516
      dxz     :     0.039551
      dyz     :     0.042054
      dx2y2   :     0.023037
      dxy     :     0.045408
 12 O s       :     3.453067  s :     3.453067
      pz      :     1.648757  p :     4.715743
      px      :     1.505588
      py      :     1.561398
      dz2     :     0.001846  d :     0.023831
      dxz     :     0.005650
      dyz     :     0.004458
      dx2y2   :     0.005321
      dxy     :     0.006556
 13 C s       :     2.848241  s :     2.848241
      pz      :     0.887159  p :     2.900581
      px      :     0.997193
      py      :     1.016228
      dz2     :     0.027499  d :     0.161950
      dxz     :     0.045575
      dyz     :     0.037015
      dx2y2   :     0.016063
      dxy     :     0.035798
 14 O s       :     3.457278  s :     3.457278
      pz      :     1.563983  p :     4.726440
      px      :     1.627880
      py      :     1.534578
      dz2     :     0.004895  d :     0.022935
      dxz     :     0.005755
      dyz     :     0.006793
      dx2y2   :     0.000885
      dxy     :     0.004608
 15 C s       :     2.847392  s :     2.847392
      pz      :     0.939364  p :     2.897480
      px      :     0.930848
      py      :     1.027268
      dz2     :     0.029304  d :     0.162671
      dxz     :     0.044829
      dyz     :     0.031414
      dx2y2   :     0.016342
      dxy     :     0.040781
 16 O s       :     3.451912  s :     3.451912
      pz      :     1.476678  p :     4.714818
      px      :     1.620243
      py      :     1.617897
      dz2     :     0.002119  d :     0.023331
      dxz     :     0.008873
      dyz     :     0.004084
      dx2y2   :     0.002865
      dxy     :     0.005390
 17 C s       :     2.849665  s :     2.849665
      pz      :     1.035577  p :     3.130761
      px      :     1.048844
      py      :     1.046340
      dz2     :     0.017914  d :     0.093122
      dxz     :     0.030736
      dyz     :     0.009571
      dx2y2   :     0.017727
      dxy     :     0.017174
 18 C s       :     2.852669  s :     2.852669
      pz      :     1.022784  p :     3.011758
      px      :     1.057878
      py      :     0.931097
      dz2     :     0.021431  d :     0.100510
      dxz     :     0.031529
      dyz     :     0.012812
      dx2y2   :     0.016647
      dxy     :     0.018091
 19 H s       :     0.711207  s :     0.711207
      pz      :     0.043302  p :     0.174800
      px      :     0.089367
      py      :     0.042131
 20 H s       :     0.886877  s :     0.886877
      pz      :     0.037667  p :     0.069806
      px      :     0.015691
      py      :     0.016448
 21 H s       :     0.897775  s :     0.897775
      pz      :     0.031056  p :     0.073028
      px      :     0.022375
      py      :     0.019598
 22 H s       :     0.791618  s :     0.791618
      pz      :     0.068277  p :     0.129337
      px      :     0.019447
      py      :     0.041613
 23 H s       :     0.919589  s :     0.919589
      pz      :     0.012480  p :     0.065604
      px      :     0.013065
      py      :     0.040059
 24 H s       :     0.927499  s :     0.927499
      pz      :     0.024382  p :     0.066839
      px      :     0.020574
      py      :     0.021882
 25 H s       :     0.920172  s :     0.920172
      pz      :     0.024228  p :     0.064107
      px      :     0.027621
      py      :     0.012258
 26 H s       :     0.922557  s :     0.922557
      pz      :     0.020376  p :     0.066984
      px      :     0.026751
      py      :     0.019857
 27 H s       :     0.727152  s :     0.727152
      pz      :     0.065617  p :     0.180291
      px      :     0.073346
      py      :     0.041328
 28 H s       :     0.914450  s :     0.914450
      pz      :     0.014675  p :     0.068640
      px      :     0.026014
      py      :     0.027951
 29 H s       :     0.723472  s :     0.723472
      pz      :     0.045378  p :     0.180568
      px      :     0.063394
      py      :     0.071796
 30 H s       :     0.919670  s :     0.919670
      pz      :     0.017814  p :     0.066909
      px      :     0.024688
      py      :     0.024407
 31 H s       :     0.721031  s :     0.721031
      pz      :     0.055213  p :     0.182007
      px      :     0.052198
      py      :     0.074595
 32 H s       :     0.907497  s :     0.907497
      pz      :     0.035262  p :     0.069611
      px      :     0.013629
      py      :     0.020719
 33 H s       :     0.892533  s :     0.892533
      pz      :     0.027776  p :     0.069740
      px      :     0.024206
      py      :     0.017758


                      *****************************
                      * MAYER POPULATION ANALYSIS *
                      *****************************

  NA   - Mulliken gross atomic population
  ZA   - Total nuclear charge
  QA   - Mulliken gross atomic charge
  VA   - Mayer's total valence
  BVA  - Mayer's bonded valence
  FA   - Mayer's free valence

  ATOM       NA         ZA         QA         VA         BVA        FA
  0 O      8.4192     8.0000    -0.4192     2.0651     2.0651     0.0000
  1 C      5.4178     6.0000     0.5822     4.1133     4.1133    -0.0000
  2 O      8.3560     8.0000    -0.3560     2.0831     2.0831     0.0000
  3 C      6.3245     6.0000    -0.3245     3.7064     3.7064    -0.0000
  4 C      5.9328     6.0000     0.0672     3.9369     3.9369    -0.0000
  5 C      6.1065     6.0000    -0.1065     3.8990     3.8990     0.0000
  6 C      5.7813     6.0000     0.2187     3.8094     3.8094    -0.0000
  7 N      7.4246     7.0000    -0.4246     2.8937     2.8937     0.0000
  8 C      5.6315     6.0000     0.3685     3.7575     3.7575    -0.0000
  9 O      8.6097     8.0000    -0.6097     1.8116     1.8116     0.0000
 10 C      5.6733     6.0000     0.3267     3.7849     3.7849     0.0000
 11 C      5.8495     6.0000     0.1505     3.8854     3.8854    -0.0000
 12 O      8.4649     8.0000    -0.4649     1.9158     1.9158    -0.0000
 13 C      5.8305     6.0000     0.1695     3.8133     3.8133    -0.0000
 14 O      8.4855     8.0000    -0.4855     1.9180     1.9180    -0.0000
 15 C      5.6896     6.0000     0.3104     3.8406     3.8406     0.0000
 16 O      8.4573     8.0000    -0.4573     1.9515     1.9515    -0.0000
 17 C      6.1027     6.0000    -0.1027     3.8977     3.8977    -0.0000
 18 C      5.9349     6.0000     0.0651     3.9063     3.9063    -0.0000
 19 H      0.7768     1.0000     0.2232     1.0009     1.0009     0.0000
 20 H      0.9312     1.0000     0.0688     1.0030     1.0030    -0.0000
 21 H      0.9459     1.0000     0.0541     1.0144     1.0144     0.0000
 22 H      0.8317     1.0000     0.1683     0.9729     0.9729    -0.0000
 23 H      0.9486     1.0000     0.0514     0.9948     0.9948    -0.0000
 24 H      0.9719     1.0000     0.0281     0.9933     0.9933     0.0000
 25 H      0.9662     1.0000     0.0338     0.9879     0.9879     0.0000
 26 H      0.9633     1.0000     0.0367     0.9837     0.9837    -0.0000
 27 H      0.7931     1.0000     0.2069     0.9858     0.9858     0.0000
 28 H      0.9462     1.0000     0.0538     1.0003     1.0003    -0.0000
 29 H      0.7795     1.0000     0.2205     0.9904     0.9904    -0.0000
 30 H      0.9647     1.0000     0.0353     0.9869     0.9869     0.0000
 31 H      0.7752     1.0000     0.2248     0.9932     0.9932     0.0000
 32 H      0.9753     1.0000     0.0247     0.9977     0.9977    -0.0000
 33 H      0.9383     1.0000     0.0617     1.0017     1.0017     0.0000

  Mayer bond orders larger than 0.100000
B(  0-O ,  1-C ) :   1.9991 B(  1-C ,  2-O ) :   1.1516 B(  1-C ,  3-C ) :   0.9841 
B(  2-O , 19-H ) :   0.9428 B(  3-C ,  4-C ) :   1.3969 B(  3-C , 18-C ) :   1.3592 
B(  4-C ,  5-C ) :   1.4420 B(  4-C , 20-H ) :   0.9983 B(  5-C ,  6-C ) :   1.3655 
B(  5-C , 21-H ) :   0.9965 B(  6-C ,  7-N ) :   1.0414 B(  6-C , 17-C ) :   1.3463 
B(  7-N ,  8-C ) :   0.9189 B(  7-N , 22-H ) :   0.9269 B(  8-C ,  9-O ) :   0.9031 
B(  8-C , 15-C ) :   0.9878 B(  8-C , 23-H ) :   0.9645 B(  9-O , 10-C ) :   0.8736 
B( 10-C , 11-C ) :   1.0007 B( 10-C , 24-H ) :   0.9691 B( 10-C , 25-H ) :   0.9733 
B( 11-C , 12-O ) :   0.9213 B( 11-C , 13-C ) :   1.0029 B( 11-C , 26-H ) :   0.9563 
B( 12-O , 27-H ) :   0.9653 B( 13-C , 14-O ) :   0.9242 B( 13-C , 15-C ) :   0.9916 
B( 13-C , 28-H ) :   0.9576 B( 14-O , 29-H ) :   0.9545 B( 15-C , 16-O ) :   0.9727 
B( 15-C , 30-H ) :   0.9684 B( 16-O , 31-H ) :   0.9475 B( 17-C , 18-C ) :   1.4747 
B( 17-C , 32-H ) :   1.0045 B( 18-C , 33-H ) :   0.9965 

-------
TIMINGS
-------

Total SCF time: 0 days 0 hours 0 min 15 sec 

Total time                  ....      15.574 sec
Sum of individual times     ....      15.309 sec  ( 98.3%)

Fock matrix formation       ....      14.516 sec  ( 93.2%)
Diagonalization             ....       0.208 sec  (  1.3%)
Density matrix formation    ....       0.031 sec  (  0.2%)
Population analysis         ....       0.028 sec  (  0.2%)
Initial guess               ....       0.099 sec  (  0.6%)
Orbital Transformation      ....       0.000 sec  (  0.0%)
Orbital Orthonormalization  ....       0.000 sec  (  0.0%)
DIIS solution               ....       0.119 sec  (  0.8%)
SOSCF solution              ....       0.165 sec  (  1.1%)

Maximum memory used throughout the entire SCF-calculation: 236.2 MB

-------------------------   --------------------
FINAL SINGLE POINT ENERGY      -966.038127462298
-------------------------   --------------------


                            ***************************************
                            *     ORCA property calculations      *
                            ***************************************

                                    ---------------------
                                    Active property flags
                                    ---------------------
   (+) Dipole Moment


------------------------------------------------------------------------------
                       ORCA ELECTRIC PROPERTIES CALCULATION
------------------------------------------------------------------------------

Dipole Moment Calculation                       ... on
Quadrupole Moment Calculation                   ... off
Polarizability Calculation                      ... off
GBWName                                         ... ./ZINC000000000066/ZINC000000000066.gbw
Electron density                                ... ./ZINC000000000066/ZINC000000000066.scfp
The origin for moment calculation is the CENTER OF MASS  = ( 0.750867, -0.069966 -0.136666)

-------------
DIPOLE MOMENT
-------------
                                X             Y             Z
Electronic contribution:     12.29725      -1.42962      -1.19123
Nuclear contribution   :    -14.31784       1.82180       2.68047
                        -----------------------------------------
Total Dipole Moment    :     -2.02059       0.39218       1.48923
                        -----------------------------------------
Magnitude (a.u.)       :      2.54055
Magnitude (Debye)      :      6.45757



--------------------
Rotational spectrum 
--------------------
 
Rotational constants in cm-1:     0.032459     0.005047     0.004784 
Rotational constants in MHz :   973.109871   151.292146   143.427409 

 Dipole components along the rotational axes: 
x,y,z [a.u.] :    -2.035025    -1.491857     0.295716 
x,y,z [Debye]:    -5.172622    -3.791998     0.751650 

 

Timings for individual modules:

Sum of individual times         ...       16.206 sec (=   0.270 min)
GTO integral calculation        ...        0.408 sec (=   0.007 min)   2.5 %
SCF iterations                  ...       15.799 sec (=   0.263 min)  97.5 %
                             ****ORCA TERMINATED NORMALLY****
TOTAL RUN TIME: 0 days 0 hours 0 minutes 16 seconds 553 msec
