
                                 *****************
                                 * O   R   C   A *
                                 *****************

                                            #,                                       
                                            ###                                      
                                            ####                                     
                                            #####                                    
                                            ######                                   
                                           ########,                                 
                                     ,,################,,,,,                         
                               ,,#################################,,                 
                          ,,##########################################,,             
                       ,#########################################, ''#####,          
                    ,#############################################,,   '####,        
                  ,##################################################,,,,####,       
                ,###########''''           ''''###############################       
              ,#####''   ,,,,##########,,,,          '''####'''          '####       
            ,##' ,,,,###########################,,,                        '##       
           ' ,,###''''                  '''############,,,                           
         ,,##''                                '''############,,,,        ,,,,,,###''
      ,#''                                            '''#######################'''  
     '                                                          ''''####''''         
             ,#######,   #######,   ,#######,      ##                                
            ,#'     '#,  ##    ##  ,#'     '#,    #''#        ######   ,####,        
            ##       ##  ##   ,#'  ##            #'  '#       #        #'  '#        
            ##       ##  #######   ##           ,######,      #####,   #    #        
            '#,     ,#'  ##    ##  '#,     ,#' ,#      #,         ##   #,  ,#        
             '#######'   ##     ##  '#######'  #'      '#     #####' # '####'        



                  #######################################################
                  #                        -***-                        #
                  #          Department of theory and spectroscopy      #
                  #    Directorship and core code : Frank Neese         #
                  #        Max Planck Institute fuer Kohlenforschung    #
                  #                Kaiser Wilhelm Platz 1               #
                  #                 D-45470 Muelheim/Ruhr               #
                  #                      Germany                        #
                  #                                                     #
                  #                  All rights reserved                #
                  #                        -***-                        #
                  #######################################################


                         Program Version 5.0.3 -  RELEASE  -


 With contributions from (in alphabetic order):
   Daniel Aravena         : Magnetic Suceptibility
   Michael Atanasov       : Ab Initio Ligand Field Theory (pilot matlab implementation)
   Alexander A. Auer      : GIAO ZORA, VPT2 properties, NMR spectrum
   Ute Becker             : Parallelization
   Giovanni Bistoni       : ED, misc. LED, open-shell LED, HFLD
   Martin Brehm           : Molecular dynamics
   Dmytro Bykov           : SCF Hessian
   Vijay G. Chilkuri      : MRCI spin determinant printing, contributions to CSF-ICE
   Dipayan Datta          : RHF DLPNO-CCSD density
   Achintya Kumar Dutta   : EOM-CC, STEOM-CC
   Dmitry Ganyushin       : Spin-Orbit,Spin-Spin,Magnetic field MRCI
   Miquel Garcia          : C-PCM and meta-GGA Hessian, CC/C-PCM, Gaussian charge scheme
   Yang Guo               : DLPNO-NEVPT2, F12-NEVPT2, CIM, IAO-localization
   Andreas Hansen         : Spin unrestricted coupled pair/coupled cluster methods
   Benjamin Helmich-Paris : MC-RPA, TRAH-SCF, COSX integrals
   Lee Huntington         : MR-EOM, pCC
   Robert Izsak           : Overlap fitted RIJCOSX, COSX-SCS-MP3, EOM
   Marcus Kettner         : VPT2
   Christian Kollmar      : KDIIS, OOCD, Brueckner-CCSD(T), CCSD density, CASPT2, CASPT2-K
   Simone Kossmann        : Meta GGA functionals, TD-DFT gradient, OOMP2, MP2 Hessian
   Martin Krupicka        : Initial AUTO-CI
   Lucas Lang             : DCDCAS
   Marvin Lechner         : AUTO-CI (C++ implementation), FIC-MRCC
   Dagmar Lenk            : GEPOL surface, SMD
   Dimitrios Liakos       : Extrapolation schemes; Compound Job, initial MDCI parallelization
   Dimitrios Manganas     : Further ROCIS development; embedding schemes
   Dimitrios Pantazis     : SARC Basis sets
   Anastasios Papadopoulos: AUTO-CI, single reference methods and gradients
   Taras Petrenko         : DFT Hessian,TD-DFT gradient, ASA, ECA, R-Raman, ABS, FL, XAS/XES, NRVS
   Peter Pinski           : DLPNO-MP2, DLPNO-MP2 Gradient
   Christoph Reimann      : Effective Core Potentials
   Marius Retegan         : Local ZFS, SOC
   Christoph Riplinger    : Optimizer, TS searches, QM/MM, DLPNO-CCSD(T), (RO)-DLPNO pert. Triples
   Tobias Risthaus        : Range-separated hybrids, TD-DFT gradient, RPA, STAB
   Michael Roemelt        : Original ROCIS implementation
   Masaaki Saitow         : Open-shell DLPNO-CCSD energy and density
   Barbara Sandhoefer     : DKH picture change effects
   Avijit Sen             : IP-ROCIS
   Kantharuban Sivalingam : CASSCF convergence, NEVPT2, FIC-MRCI
   Bernardo de Souza      : ESD, SOC TD-DFT
   Georgi Stoychev        : AutoAux, RI-MP2 NMR, DLPNO-MP2 response
   Willem Van den Heuvel  : Paramagnetic NMR
   Boris Wezisla          : Elementary symmetry handling
   Frank Wennmohs         : Technical directorship


 We gratefully acknowledge several colleagues who have allowed us to
 interface, adapt or use parts of their codes:
   Stefan Grimme, W. Hujo, H. Kruse, P. Pracht,  : VdW corrections, initial TS optimization,
                  C. Bannwarth, S. Ehlert          DFT functionals, gCP, sTDA/sTD-DF
   Ed Valeev, F. Pavosevic, A. Kumar             : LibInt (2-el integral package), F12 methods
   Garnet Chan, S. Sharma, J. Yang, R. Olivares  : DMRG
   Ulf Ekstrom                                   : XCFun DFT Library
   Mihaly Kallay                                 : mrcc  (arbitrary order and MRCC methods)
   Jiri Pittner, Ondrej Demel                    : Mk-CCSD
   Frank Weinhold                                : gennbo (NPA and NBO analysis)
   Christopher J. Cramer and Donald G. Truhlar   : smd solvation model
   Lars Goerigk                                  : TD-DFT with DH, B97 family of functionals
   V. Asgeirsson, H. Jonsson                     : NEB implementation
   FAccTs GmbH                                   : IRC, NEB, NEB-TS, DLPNO-Multilevel, CI-OPT
                                                   MM, QMMM, 2- and 3-layer-ONIOM, Crystal-QMMM,
                                                   LR-CPCM, SF, NACMEs, symmetry and pop. for TD-DFT,
                                                   nearIR, NL-DFT gradient (VV10), updates on ESD,
                                                   ML-optimized integration grids
   S Lehtola, MJT Oliveira, MAL Marques          : LibXC Library
   Liviu Ungur et al                             : ANISO software


 Your calculation uses the libint2 library for the computation of 2-el integrals
 For citations please refer to: http://libint.valeyev.net

 Your ORCA version has been built with support for libXC version: 5.1.0
 For citations please refer to: https://tddft.org/programs/libxc/

 This ORCA versions uses:
   CBLAS   interface :  Fast vector & matrix operations
   LAPACKE interface :  Fast linear algebra routines
   SCALAPACK package :  Parallel linear algebra routines
   Shared memory     :  Shared parallel matrices
   BLAS/LAPACK       :  OpenBLAS 0.3.15  USE64BITINT DYNAMIC_ARCH NO_AFFINITY Zen SINGLE_THREADED
        Core in use  :  Zen
   Copyright (c) 2011-2014, The OpenBLAS Project


================================================================================

----- Orbital basis set information -----
Your calculation utilizes the basis: def2-SVP
   F. Weigend and R. Ahlrichs, Phys. Chem. Chem. Phys. 7, 3297 (2005).

================================================================================
                                        WARNINGS
                       Please study these warnings very carefully!
================================================================================


INFO   : the flag for use of the SHARK integral package has been found!

================================================================================
                                       INPUT FILE
================================================================================
NAME = ./ZINC000000000213/ZINC000000000213.inp
|  1> !RHF def2-SVP TightSCF PAL16 
|  2> *xyz 0 1
|  3> C 7.241482467352226 1.3700681666110077 -0.5750697887156989
|  4> C 6.51058613337298 0.9809768177331698 -1.6955134548917634
|  5> C 5.5893613278541485 -0.06343771096097689 -1.6018209258889302
|  6> C 5.392648693249424 -0.7324362937344603 -0.38438315002263185
|  7> C 4.388501584510029 -1.8506616738665962 -0.2792244843976011
|  8> N 3.109208165851083 -1.3717883705792078 0.2135318573012487
|  9> C 2.6704772882668517 -1.4535628014189164 1.5048238037980868
| 10> N 1.4522662832612585 -0.9778830944369878 1.630137454992308
| 11> C 1.0881372597779297 -0.5717968343797107 0.36590652148812486
| 12> C -0.2876117936497254 0.07593959770039635 -0.006345567461126849
| 13> N -1.2643873391070155 0.3080003223321654 0.8465860471625847
| 14> C -2.2362301860310443 0.8615782621941933 0.05168966276010383
| 15> C -3.5639261473830435 1.3052273722862837 0.5870333897937314
| 16> N -4.546997698386516 0.19849114802109918 0.6489647975463951
| 17> C -4.883488759265357 -0.3050648124470267 -0.6995628787191054
| 18> C -6.200150609291805 -1.0862569270204196 -0.7837903520387633
| 19> S -7.649892057619127 -0.009661561234132164 -0.5067499890926273
| 20> C -6.898837053890791 1.1807755448003843 0.6554179429929905
| 21> C -5.731516715656716 0.5745790484583946 1.4420293064210745
| 22> N -1.8947246968458396 1.0046624648790867 -1.2373850555960686
| 23> O -0.6049508610937108 0.47325272587811357 -1.2817591988204955
| 24> C 2.1045145090251793 -0.8178067238713688 -0.5329396445238507
| 25> C 6.131392243170437 -0.3279231581101632 0.7378093669143981
| 26> C 7.051588245949081 0.7170874403033697 0.6408994632932751
| 27> H 7.956351267049251 2.185696332983775 -0.6483081311636709
| 28> H 6.656037410981889 1.4947079498784537 -2.642572768478661
| 29> H 5.0249987000185135 -0.3475967063043812 -2.487500286142515
| 30> H 4.215215812331535 -2.323022226275342 -1.2534194645125258
| 31> H 4.74794749050797 -2.6344621709249303 0.3979513771714969
| 32> H 3.2692860800701427 -1.8637524147035864 2.307930724986091
| 33> H -3.3799824565400116 1.6887494740749265 1.5990355593618482
| 34> H -3.9532717315580004 2.144490428846067 -0.0032163224751985057
| 35> H -4.920616969495259 0.516293057518982 -1.4286105664927746
| 36> H -4.079847497760544 -0.9780465685508971 -1.0221212797899208
| 37> H -6.2179267862095156 -1.9036952859730145 -0.05482647058905296
| 38> H -6.303092700595153 -1.5341268096999443 -1.7774772584549745
| 39> H -7.6816951571059935 1.5070679689356816 1.347641113574474
| 40> H -6.572664173036549 2.0626330109127284 0.093904147212274
| 41> H -5.449627629000819 1.2652575368483447 2.247074573975051
| 42> H -6.08329582421591 -0.32465996768667876 1.9656487754619874
| 43> H 2.19213688736734 -0.643648843737869 -1.5960806865510793
| 44> H 5.994456677892014 -0.8197441346648021 1.698556796079837
| 45> H 7.618140315880223 1.0255004193843615 1.516105042531866
| 46> *
| 47> 
| 48>                          ****END OF INPUT****
================================================================================

                       ****************************
                       * Single Point Calculation *
                       ****************************

---------------------------------
CARTESIAN COORDINATES (ANGSTROEM)
---------------------------------
  C      7.241482    1.370068   -0.575070
  C      6.510586    0.980977   -1.695513
  C      5.589361   -0.063438   -1.601821
  C      5.392649   -0.732436   -0.384383
  C      4.388502   -1.850662   -0.279224
  N      3.109208   -1.371788    0.213532
  C      2.670477   -1.453563    1.504824
  N      1.452266   -0.977883    1.630137
  C      1.088137   -0.571797    0.365907
  C     -0.287612    0.075940   -0.006346
  N     -1.264387    0.308000    0.846586
  C     -2.236230    0.861578    0.051690
  C     -3.563926    1.305227    0.587033
  N     -4.546998    0.198491    0.648965
  C     -4.883489   -0.305065   -0.699563
  C     -6.200151   -1.086257   -0.783790
  S     -7.649892   -0.009662   -0.506750
  C     -6.898837    1.180776    0.655418
  C     -5.731517    0.574579    1.442029
  N     -1.894725    1.004662   -1.237385
  O     -0.604951    0.473253   -1.281759
  C      2.104515   -0.817807   -0.532940
  C      6.131392   -0.327923    0.737809
  C      7.051588    0.717087    0.640899
  H      7.956351    2.185696   -0.648308
  H      6.656037    1.494708   -2.642573
  H      5.024999   -0.347597   -2.487500
  H      4.215216   -2.323022   -1.253419
  H      4.747947   -2.634462    0.397951
  H      3.269286   -1.863752    2.307931
  H     -3.379982    1.688749    1.599036
  H     -3.953272    2.144490   -0.003216
  H     -4.920617    0.516293   -1.428611
  H     -4.079847   -0.978047   -1.022121
  H     -6.217927   -1.903695   -0.054826
  H     -6.303093   -1.534127   -1.777477
  H     -7.681695    1.507068    1.347641
  H     -6.572664    2.062633    0.093904
  H     -5.449628    1.265258    2.247075
  H     -6.083296   -0.324660    1.965649
  H      2.192137   -0.643649   -1.596081
  H      5.994457   -0.819744    1.698557
  H      7.618140    1.025500    1.516105

----------------------------
CARTESIAN COORDINATES (A.U.)
----------------------------
  NO LB      ZA    FRAG     MASS         X           Y           Z
   0 C     6.0000    0    12.011   13.684419    2.589054   -1.086724
   1 C     6.0000    0    12.011   12.303225    1.853778   -3.204056
   2 C     6.0000    0    12.011   10.562362   -0.119880   -3.027003
   3 C     6.0000    0    12.011   10.190629   -1.384104   -0.726379
   4 C     6.0000    0    12.011    8.293066   -3.497244   -0.527658
   5 N     7.0000    0    14.007    5.875552   -2.592304    0.403517
   6 C     6.0000    0    12.011    5.046471   -2.746836    2.843705
   7 N     7.0000    0    14.007    2.744386   -1.847931    3.080513
   8 C     6.0000    0    12.011    2.056281   -1.080539    0.691463
   9 C     6.0000    0    12.011   -0.543508    0.143505   -0.011991
  10 N     7.0000    0    14.007   -2.389346    0.582036    1.599816
  11 C     6.0000    0    12.011   -4.225863    1.628147    0.097679
  12 C     6.0000    0    12.011   -6.734844    2.466522    1.109332
  13 N     7.0000    0    14.007   -8.592580    0.375094    1.226366
  14 C     6.0000    0    12.011   -9.228456   -0.576489   -1.321982
  15 C     6.0000    0    12.011  -11.716587   -2.052728   -1.481149
  16 S    16.0000    0    32.060  -14.456201   -0.018258   -0.957619
  17 C     6.0000    0    12.011  -13.036913    2.231342    1.238560
  18 C     6.0000    0    12.011  -10.830997    1.085797    2.725040
  19 N     7.0000    0    14.007   -3.580511    1.898537   -2.338319
  20 O     8.0000    0    15.999   -1.143191    0.894318   -2.422174
  21 C     6.0000    0    12.011    3.976956   -1.545431   -1.007110
  22 C     6.0000    0    12.011   11.586652   -0.619685    1.394258
  23 C     6.0000    0    12.011   13.325571    1.355099    1.211124
  24 H     1.0000    0     1.008   15.035325    4.130367   -1.225125
  25 H     1.0000    0     1.008   12.578088    2.824589   -4.993739
  26 H     1.0000    0     1.008    9.495871   -0.656863   -4.700694
  27 H     1.0000    0     1.008    7.965603   -4.389876   -2.368620
  28 H     1.0000    0     1.008    8.972320   -4.978412    0.752019
  29 H     1.0000    0     1.008    6.178055   -3.521982    4.361357
  30 H     1.0000    0     1.008   -6.387241    3.191274    3.021739
  31 H     1.0000    0     1.008   -7.470601    4.052500   -0.006078
  32 H     1.0000    0     1.008   -9.298618    0.975652   -2.699683
  33 H     1.0000    0     1.008   -7.709794   -1.848240   -1.931529
  34 H     1.0000    0     1.008  -11.750179   -3.597463   -0.103607
  35 H     1.0000    0     1.008  -11.911119   -2.899080   -3.358945
  36 H     1.0000    0     1.008  -14.516300    2.847946    2.546673
  37 H     1.0000    0     1.008  -12.420535    3.897812    0.177453
  38 H     1.0000    0     1.008  -10.298304    2.390990    4.246356
  39 H     1.0000    0     1.008  -11.495763   -0.613518    3.714538
  40 H     1.0000    0     1.008    4.142538   -1.216320   -3.016155
  41 H     1.0000    0     1.008   11.327881   -1.549092    3.209807
  42 H     1.0000    0     1.008   14.396199    1.937915    2.865023

--------------------------------
INTERNAL COORDINATES (ANGSTROEM)
--------------------------------
 C      0   0   0     0.000000000000     0.00000000     0.00000000
 C      1   0   0     1.393196159150     0.00000000     0.00000000
 C      2   1   0     1.395791940098   120.08200314     0.00000000
 C      3   2   1     1.403000250346   120.50280662   359.83066710
 C      4   3   2     1.506584800706   120.52643559   179.38432978
 N      5   4   3     1.452143279401   111.47481438   264.64768861
 C      6   5   4     1.366238167953   125.72375488   261.57626711
 N      7   6   5     1.313778043479   111.48420024   182.32823428
 C      8   7   6     1.376871762213   105.33305739     0.00000000
 C      9   8   7     1.565509361575   124.94331046   180.25895080
 N     10   9   8     1.317359095063   124.78654798   359.85861473
 C     11  10   9     1.372146973380   102.77628640   180.48425867
 C     12  11  10     1.498730797959   122.67916249   180.23567427
 N     13  12  11     1.481597193491   112.43348224   274.54683166
 C     14  13  12     1.478283373724   111.55240950   295.13939133
 C     15  14  13     1.533282040085   114.77943031   199.88478082
 S     16  15  14     1.826898796138   111.89254659    68.06372236
 C     17  16  15     1.825337893218    98.87977526   328.08004297
 C     14  13  12     1.474272270094   111.41014948   167.49720584
 N     12  11  10     1.341198239526   114.80250038   358.72830092
 O     10   9   8     1.373041054232   122.93652701   179.61833274
 C      6   5   4     1.368767588743   126.51645824    84.85354326
 C      4   3   2     1.403099766414   118.86328472     0.39396316
 C      1   2   3     1.393206684625   119.96789037   359.92110577
 H      1   2   3     1.087037516080   120.02451770   180.19783686
 H      2   1   3     1.087196897413   119.89475443   179.76694317
 H      3   2   1     1.087970330253   118.89138223   179.65665164
 H      5   4   3     1.096452602529   111.28922817    24.93139911
 H      5   4   3     1.096408557983   110.80603854   143.87863307
 H      7   6   5     1.082500907550   123.10984642     2.28491012
 H     13  12  11     1.097758113234   106.51534417    34.47277833
 H     13  12  11     1.097427530571   110.39892427   149.99522056
 H     15  14  13     1.098871141489   110.99570666   323.19739684
 H     15  14  13     1.096716756206   108.09100682    79.95552694
 H     16  15  14     1.095403945406   110.95181850   306.05539426
 H     16  15  14     1.094805084915   109.81768140   187.61340395
 H     18  17  16     1.094763204400   107.62139042   212.71694321
 H     18  17  16     1.095152538049   108.73883975    96.80343196
 H     19  14  13     1.097540939697   110.41096550   327.65311704
 H     19  14  13     1.098433747540   107.75244534   214.27964425
 H     22   6   5     1.080868874398   122.82840463   357.39984394
 H     23   4   3     1.087968218592   120.64227700   179.37121494
 H     24   1   2     1.087237149632   119.90733220   180.36887909

---------------------------
INTERNAL COORDINATES (A.U.)
---------------------------
 C      0   0   0     0.000000000000     0.00000000     0.00000000
 C      1   0   0     2.632759191624     0.00000000     0.00000000
 C      2   1   0     2.637664506719   120.08200314     0.00000000
 C      3   2   1     2.651286238978   120.50280662   359.83066710
 C      4   3   2     2.847032670862   120.52643559   179.38432978
 N      5   4   3     2.744153105282   111.47481438   264.64768861
 C      6   5   4     2.581815971142   125.72375488   261.57626711
 N      7   6   5     2.482680702934   111.48420024   182.32823428
 C      8   7   6     2.601910552112   105.33305739     0.00000000
 C      9   8   7     2.958383953466   124.94331046   180.25895080
 N     10   9   8     2.489447909699   124.78654798   359.85861473
 C     11  10   9     2.592981995177   102.77628640   180.48425867
 C     12  11  10     2.832190756615   122.67916249   180.23567427
 N     13  12  11     2.799812936484   112.43348224   274.54683166
 C     14  13  12     2.793550724667   111.55240950   295.13939133
 C     15  14  13     2.897483141822   114.77943031   199.88478082
 S     16  15  14     3.452338399092   111.89254659    68.06372236
 C     17  16  15     3.449388720051    98.87977526   328.08004297
 C     14  13  12     2.785970837311   111.41014948   167.49720584
 N     12  11  10     2.534497364001   114.80250038   358.72830092
 O     10   9   8     2.594671563129   122.93652701   179.61833274
 C      6   5   4     2.586595883711   126.51645824    84.85354326
 C      4   3   2     2.651474297092   118.86328472     0.39396316
 C      1   2   3     2.632779081889   119.96789037   359.92110577
 H      1   2   3     2.054203202689   120.02451770   180.19783686
 H      2   1   3     2.054504389760   119.89475443   179.76694317
 H      3   2   1     2.055965966010   118.89138223   179.65665164
 H      5   4   3     2.071995137605   111.28922817    24.93139911
 H      5   4   3     2.071911905476   110.80603854   143.87863307
 H      7   6   5     2.045630254992   123.10984642     2.28491012
 H     13  12  11     2.074462195303   106.51534417    34.47277833
 H     13  12  11     2.073837484606   110.39892427   149.99522056
 H     15  14  13     2.076565513884   110.99570666   323.19739684
 H     15  14  13     2.072494315712   108.09100682    79.95552694
 H     16  15  14     2.070013462834   110.95181850   306.05539426
 H     16  15  14     2.068881780514   109.81768140   187.61340395
 H     18  17  16     2.068802637810   107.62139042   212.71694321
 H     18  17  16     2.069538371781   108.73883975    96.80343196
 H     19  14  13     2.074051796794   110.41096550   327.65311704
 H     19  14  13     2.075738959108   107.75244534   214.27964425
 H     22   6   5     2.042546159291   122.82840463   357.39984394
 H     23   4   3     2.055961975548   120.64227700   179.37121494
 H     24   1   2     2.054580455429   119.90733220   180.36887909

---------------------
BASIS SET INFORMATION
---------------------
There are 5 groups of distinct atoms

 Group   1 Type C   : 7s4p1d contracted to 3s2p1d pattern {511/31/1}
 Group   2 Type N   : 7s4p1d contracted to 3s2p1d pattern {511/31/1}
 Group   3 Type S   : 10s7p1d contracted to 4s3p1d pattern {5311/511/1}
 Group   4 Type O   : 7s4p1d contracted to 3s2p1d pattern {511/31/1}
 Group   5 Type H   : 4s1p contracted to 2s1p pattern {31/1}

Atom   0C    basis set group =>   1
Atom   1C    basis set group =>   1
Atom   2C    basis set group =>   1
Atom   3C    basis set group =>   1
Atom   4C    basis set group =>   1
Atom   5N    basis set group =>   2
Atom   6C    basis set group =>   1
Atom   7N    basis set group =>   2
Atom   8C    basis set group =>   1
Atom   9C    basis set group =>   1
Atom  10N    basis set group =>   2
Atom  11C    basis set group =>   1
Atom  12C    basis set group =>   1
Atom  13N    basis set group =>   2
Atom  14C    basis set group =>   1
Atom  15C    basis set group =>   1
Atom  16S    basis set group =>   3
Atom  17C    basis set group =>   1
Atom  18C    basis set group =>   1
Atom  19N    basis set group =>   2
Atom  20O    basis set group =>   4
Atom  21C    basis set group =>   1
Atom  22C    basis set group =>   1
Atom  23C    basis set group =>   1
Atom  24H    basis set group =>   5
Atom  25H    basis set group =>   5
Atom  26H    basis set group =>   5
Atom  27H    basis set group =>   5
Atom  28H    basis set group =>   5
Atom  29H    basis set group =>   5
Atom  30H    basis set group =>   5
Atom  31H    basis set group =>   5
Atom  32H    basis set group =>   5
Atom  33H    basis set group =>   5
Atom  34H    basis set group =>   5
Atom  35H    basis set group =>   5
Atom  36H    basis set group =>   5
Atom  37H    basis set group =>   5
Atom  38H    basis set group =>   5
Atom  39H    basis set group =>   5
Atom  40H    basis set group =>   5
Atom  41H    basis set group =>   5
Atom  42H    basis set group =>   5


           ************************************************************
           *        Program running with 16 parallel MPI-processes    *
           *              working on a common directory               *
           ************************************************************
------------------------------------------------------------------------------
                           ORCA GTO INTEGRAL CALCULATION
------------------------------------------------------------------------------
------------------------------------------------------------------------------
                   ___                                                        
                  /   \      - P O W E R E D   B Y -                         
                 /     \                                                     
                 |  |  |   _    _      __       _____    __    __             
                 |  |  |  | |  | |    /  \     |  _  \  |  |  /  |          
                  \  \/   | |  | |   /    \    | | | |  |  | /  /          
                 / \  \   | |__| |  /  /\  \   | |_| |  |  |/  /          
                |  |  |   |  __  | /  /__\  \  |    /   |      \           
                |  |  |   | |  | | |   __   |  |    \   |  |\   \          
                \     /   | |  | | |  |  |  |  | |\  \  |  | \   \       
                 \___/    |_|  |_| |__|  |__|  |_| \__\ |__|  \__/        
                                                                              
                      - O R C A' S   B I G   F R I E N D -                    
                                      &                                       
                       - I N T E G R A L  F E E D E R -                       
                                                                              
 v1 FN, 2020, v2 2021                                                         
------------------------------------------------------------------------------


Reading SHARK input file ./ZINC000000000213/ZINC000000000213.SHARKINP.tmp ... ok
----------------------
SHARK INTEGRAL PACKAGE
----------------------

Number of atoms                             ...     43
Number of basis functions                   ...    435
Number of shells                            ...    203
Maximum angular momentum                    ...      2
Integral batch strategy                     ... SHARK/LIBINT Hybrid
RI-J (if used) integral strategy            ... SPLIT-RIJ (Revised 2003 algorithm where possible)
Printlevel                                  ...      1
Contraction scheme used                     ... SEGMENTED contraction
Coulomb Range Separation                    ... NOT USED
Exchange Range Separation                   ... NOT USED
Finite Nucleus Model                        ... NOT USED
Auxiliary Coulomb fitting basis             ... NOT available
Auxiliary J/K fitting basis                 ... NOT available
Auxiliary Correlation fitting basis         ... NOT available
Auxiliary 'external' fitting basis          ... NOT available
Integral threshold                          ...     2.500000e-11
Primitive cut-off                           ...     2.500000e-12
Primitive pair pre-selection threshold      ...     2.500000e-12

Calculating pre-screening integrals         ... done (  0.0 sec) Dimension = 203
Organizing shell pair data                  ... done (  0.1 sec)
Shell pair information
Total number of shell pairs                 ...     20706
Shell pairs after pre-screening             ...     11681
Total number of primitive shell pairs       ...     76234
Primitive shell pairs kept                  ...     27929
          la=0 lb=0:   3580 shell pairs
          la=1 lb=0:   4354 shell pairs
          la=1 lb=1:   1378 shell pairs
          la=2 lb=0:   1373 shell pairs
          la=2 lb=1:    857 shell pairs
          la=2 lb=2:    139 shell pairs

Calculating one electron integrals          ... done (  0.0 sec)
Calculating Nuclear repulsion               ... done (  0.0 sec) ENN=   1969.435489879987 Eh

SHARK setup successfully completed in   0.2 seconds

Maximum memory used throughout the entire GTOINT-calculation: 18.8 MB


           ************************************************************
           *        Program running with 16 parallel MPI-processes    *
           *              working on a common directory               *
           ************************************************************
-------------------------------------------------------------------------------
                                 ORCA SCF
-------------------------------------------------------------------------------

------------
SCF SETTINGS
------------
Hamiltonian:
 Ab initio Hamiltonian  Method          .... Hartree-Fock(GTOs)


General Settings:
 Integral files         IntName         .... ./ZINC000000000213/ZINC000000000213
 Hartree-Fock type      HFTyp           .... RHF
 Total Charge           Charge          ....    0
 Multiplicity           Mult            ....    1
 Number of Electrons    NEL             ....  180
 Basis Dimension        Dim             ....  435
 Nuclear Repulsion      ENuc            ....   1969.4354898800 Eh

Convergence Acceleration:
 DIIS                   CNVDIIS         .... on
   Start iteration      DIISMaxIt       ....    12
   Startup error        DIISStart       ....  0.200000
   # of expansion vecs  DIISMaxEq       ....     5
   Bias factor          DIISBfac        ....   1.050
   Max. coefficient     DIISMaxC        ....  10.000
 Trust-Rad. Augm. Hess. CNVTRAH         .... auto
   Auto Start mean grad. ratio tolernc. ....  1.125000
   Auto Start start iteration           ....    20
   Auto Start num. interpolation iter.  ....    10
   Max. Number of Micro iterations      ....    16
   Max. Number of Macro iterations      .... Maxiter - #DIIS iter
   Number of Davidson start vectors     ....     2
   Converg. threshold I  (grad. norm)   ....   1.000e-05
   Converg. threshold II (energy diff.) ....   1.000e-08
   Grad. Scal. Fac. for Micro threshold ....   0.100
   Minimum threshold for Micro iter.    ....   0.010
   NR start threshold (gradient norm)   ....   0.001
   Initial trust radius                 ....   0.400
   Minimum AH scaling param. (alpha)    ....   1.000
   Maximum AH scaling param. (alpha)    .... 1000.000
   Orbital update algorithm             .... Taylor
   White noise on init. David. guess    .... on
   Maximum white noise                  ....   0.010
   Quad. conv. algorithm                .... NR
 SOSCF                  CNVSOSCF        .... on
   Start iteration      SOSCFMaxIt      ....   150
   Startup grad/error   SOSCFStart      ....  0.003300
 Level Shifting         CNVShift        .... on
   Level shift para.    LevelShift      ....    0.2500
   Turn off err/grad.   ShiftErr        ....    0.0010
 Zerner damping         CNVZerner       .... off
 Static damping         CNVDamp         .... on
   Fraction old density DampFac         ....    0.7000
   Max. Damping (<1)    DampMax         ....    0.9800
   Min. Damping (>=0)   DampMin         ....    0.0000
   Turn off err/grad.   DampErr         ....    0.1000
 Fernandez-Rico         CNVRico         .... off

SCF Procedure:
 Maximum # iterations   MaxIter         ....   125
 SCF integral mode      SCFMode         .... Direct
   Integral package                     .... SHARK and LIBINT hybrid scheme
 Reset frequency        DirectResetFreq ....    20
 Integral Threshold     Thresh          ....  2.500e-11 Eh
 Primitive CutOff       TCut            ....  2.500e-12 Eh

Convergence Tolerance:
 Convergence Check Mode ConvCheckMode   .... Total+1el-Energy
 Convergence forced     ConvForced      .... 0
 Energy Change          TolE            ....  1.000e-08 Eh
 1-El. energy change                    ....  1.000e-05 Eh
 Orbital Gradient       TolG            ....  1.000e-05
 Orbital Rotation angle TolX            ....  1.000e-05
 DIIS Error             TolErr          ....  5.000e-07


Diagonalization of the overlap matrix:
Smallest eigenvalue                        ... 2.945e-04
Time for diagonalization                   ...    0.024 sec
Threshold for overlap eigenvalues          ... 1.000e-08
Number of eigenvalues below threshold      ... 0
Time for construction of square roots      ...    0.020 sec
Total time needed                          ...    0.045 sec

Time for model grid setup =    0.187 sec

------------------------------
INITIAL GUESS: MODEL POTENTIAL
------------------------------
Loading Hartree-Fock densities                     ... done
Calculating cut-offs                               ... done
Initializing the effective Hamiltonian             ... done
Setting up the integral package (SHARK)            ... done
Starting the Coulomb interaction                   ... done (   0.1 sec)
Reading the grid                                   ... done
Mapping shells                                     ... done
Starting the XC term evaluation                    ... done (   0.0 sec)
Transforming the Hamiltonian                       ... done (   0.0 sec)
Diagonalizing the Hamiltonian                      ... done (   0.0 sec)
Back transforming the eigenvectors                 ... done (   0.0 sec)
Now organizing SCF variables                       ... done
                      ------------------
                      INITIAL GUESS DONE (   0.3 sec)
                      ------------------
--------------
SCF ITERATIONS
--------------
ITER       Energy         Delta-E        Max-DP      RMS-DP      [F,P]     Damp
               ***  Starting incremental Fock matrix formation  ***
  0  -1397.7739829974   0.000000000000 0.06104762  0.00154894  0.2078936 0.7000
  1  -1398.0172469378  -0.243263940421 0.04947758  0.00121181  0.1305904 0.7000
                               ***Turning on DIIS***
  2  -1398.1672007020  -0.149953764255 0.12129246  0.00279627  0.0756731 0.0000
  3  -1397.2623705606   0.904830141438 0.03823070  0.00062688  0.0404454 0.0000
  4  -1398.6135699730  -1.351199412415 0.00841761  0.00021289  0.0082430 0.0000
  5  -1398.4994500991   0.114119873867 0.00407562  0.00009693  0.0046554 0.0000
                      *** Initiating the SOSCF procedure ***
                           *** Shutting down DIIS ***
                      *** Re-Reading the Fockian *** 
                      *** Removing any level shift *** 
ITER      Energy       Delta-E        Grad      Rot      Max-DP    RMS-DP
  6  -1398.48146693   0.0179831709  0.001749  0.001749  0.002234  0.000042
               *** Restarting incremental Fock matrix formation ***
  7  -1398.48890569  -0.0074387650  0.000772  0.001498  0.001132  0.000023
  8  -1398.48893203  -0.0000263375  0.000439  0.002014  0.001746  0.000026
  9  -1398.48894289  -0.0000108587  0.000152  0.000212  0.000465  0.000005
 10  -1398.48894376  -0.0000008754  0.000042  0.000060  0.000139  0.000002
 11  -1398.48894397  -0.0000002077  0.000023  0.000077  0.000048  0.000001
 12  -1398.48894400  -0.0000000282  0.000010  0.000050  0.000030  0.000000
 13  -1398.48894401  -0.0000000056  0.000003  0.000012  0.000008  0.000000
                  ***Gradient check signals convergence***
              ***Rediagonalizing the Fockian in SOSCF/NRSCF***

               *****************************************************
               *                     SUCCESS                       *
               *           SCF CONVERGED AFTER  14 CYCLES          *
               *****************************************************


----------------
TOTAL SCF ENERGY
----------------

Total Energy       :        -1398.48894401 Eh          -38054.81884 eV

Components:
Nuclear Repulsion  :         1969.43548988 Eh           53591.06420 eV
Electronic Energy  :        -3367.92443389 Eh          -91645.88303 eV
One Electron Energy:        -5825.22615338 Eh         -158512.46225 eV
Two Electron Energy:         2457.30171950 Eh           66866.57922 eV

Virial components:
Potential Energy   :        -2791.74768468 Eh          -75967.31660 eV
Kinetic Energy     :         1393.25874068 Eh           37912.49777 eV
Virial Ratio       :            2.00375394


---------------
SCF CONVERGENCE
---------------

  Last Energy change         ...   -6.4483e-10  Tolerance :   1.0000e-08
  Last MAX-Density change    ...    7.8002e-06  Tolerance :   1.0000e-07
  Last RMS-Density change    ...    9.1719e-08  Tolerance :   5.0000e-09
  Last Orbital Gradient      ...    1.7526e-06  Tolerance :   1.0000e-05
  Last Orbital Rotation      ...    5.8968e-06  Tolerance :   1.0000e-05

             **** THE GBW FILE WAS UPDATED (./ZINC000000000213/ZINC000000000213.gbw) ****
             **** DENSITY ./ZINC000000000213/ZINC000000000213.scfp WAS UPDATED ****
             **** ENERGY FILE WAS UPDATED (./ZINC000000000213/ZINC000000000213.en.tmp) ****
             **** THE GBW FILE WAS UPDATED (./ZINC000000000213/ZINC000000000213.gbw) ****
             **** DENSITY ./ZINC000000000213/ZINC000000000213.scfp WAS UPDATED ****
----------------
ORBITAL ENERGIES
----------------

  NO   OCC          E(Eh)            E(eV) 
   0   2.0000     -91.893961     -2500.5618 
   1   2.0000     -20.647166      -561.8379 
   2   2.0000     -15.643245      -425.6743 
   3   2.0000     -15.618557      -425.0025 
   4   2.0000     -15.564891      -423.5422 
   5   2.0000     -15.562729      -423.4834 
   6   2.0000     -15.552692      -423.2103 
   7   2.0000     -11.372864      -309.4714 
   8   2.0000     -11.315829      -307.9193 
   9   2.0000     -11.313049      -307.8437 
  10   2.0000     -11.311963      -307.8142 
  11   2.0000     -11.293505      -307.3119 
  12   2.0000     -11.288930      -307.1874 
  13   2.0000     -11.272304      -306.7350 
  14   2.0000     -11.267640      -306.6081 
  15   2.0000     -11.262201      -306.4601 
  16   2.0000     -11.261114      -306.4305 
  17   2.0000     -11.260972      -306.4266 
  18   2.0000     -11.258185      -306.3508 
  19   2.0000     -11.257825      -306.3410 
  20   2.0000     -11.256944      -306.3170 
  21   2.0000     -11.255727      -306.2839 
  22   2.0000     -11.255382      -306.2745 
  23   2.0000     -11.254483      -306.2501 
  24   2.0000      -8.930507      -243.0114 
  25   2.0000      -6.618421      -180.0964 
  26   2.0000      -6.616985      -180.0573 
  27   2.0000      -6.614689      -179.9949 
  28   2.0000      -1.490735       -40.5650 
  29   2.0000      -1.361131       -37.0383 
  30   2.0000      -1.238835       -33.7104 
  31   2.0000      -1.216188       -33.0942 
  32   2.0000      -1.203155       -32.7395 
  33   2.0000      -1.160677       -31.5836 
  34   2.0000      -1.133900       -30.8550 
  35   2.0000      -1.062344       -28.9078 
  36   2.0000      -1.059583       -28.8327 
  37   2.0000      -1.026399       -27.9297 
  38   2.0000      -1.023050       -27.8386 
  39   2.0000      -1.016058       -27.6483 
  40   2.0000      -0.961135       -26.1538 
  41   2.0000      -0.960071       -26.1249 
  42   2.0000      -0.873789       -23.7770 
  43   2.0000      -0.861167       -23.4335 
  44   2.0000      -0.852347       -23.1936 
  45   2.0000      -0.842324       -22.9208 
  46   2.0000      -0.830869       -22.6091 
  47   2.0000      -0.809512       -22.0279 
  48   2.0000      -0.795541       -21.6478 
  49   2.0000      -0.785985       -21.3877 
  50   2.0000      -0.746050       -20.3010 
  51   2.0000      -0.731739       -19.9116 
  52   2.0000      -0.719098       -19.5677 
  53   2.0000      -0.687784       -18.7156 
  54   2.0000      -0.677489       -18.4354 
  55   2.0000      -0.669382       -18.2148 
  56   2.0000      -0.664819       -18.0906 
  57   2.0000      -0.658300       -17.9133 
  58   2.0000      -0.648118       -17.6362 
  59   2.0000      -0.633444       -17.2369 
  60   2.0000      -0.632232       -17.2039 
  61   2.0000      -0.622918       -16.9505 
  62   2.0000      -0.618130       -16.8202 
  63   2.0000      -0.609093       -16.5743 
  64   2.0000      -0.591210       -16.0876 
  65   2.0000      -0.583321       -15.8730 
  66   2.0000      -0.579097       -15.7580 
  67   2.0000      -0.575239       -15.6530 
  68   2.0000      -0.571447       -15.5499 
  69   2.0000      -0.556500       -15.1431 
  70   2.0000      -0.546687       -14.8761 
  71   2.0000      -0.533791       -14.5252 
  72   2.0000      -0.521447       -14.1893 
  73   2.0000      -0.518847       -14.1186 
  74   2.0000      -0.517533       -14.0828 
  75   2.0000      -0.514285       -13.9944 
  76   2.0000      -0.509867       -13.8742 
  77   2.0000      -0.500765       -13.6265 
  78   2.0000      -0.467485       -12.7209 
  79   2.0000      -0.459567       -12.5054 
  80   2.0000      -0.455942       -12.4068 
  81   2.0000      -0.450123       -12.2485 
  82   2.0000      -0.420752       -11.4493 
  83   2.0000      -0.414701       -11.2846 
  84   2.0000      -0.390479       -10.6255 
  85   2.0000      -0.358197        -9.7470 
  86   2.0000      -0.355854        -9.6833 
  87   2.0000      -0.354316        -9.6414 
  88   2.0000      -0.330102        -8.9825 
  89   2.0000      -0.327675        -8.9165 
  90   0.0000       0.094910         2.5826 
  91   0.0000       0.104689         2.8487 
  92   0.0000       0.112230         3.0539 
  93   0.0000       0.150243         4.0883 
  94   0.0000       0.163623         4.4524 
  95   0.0000       0.167562         4.5596 
  96   0.0000       0.174304         4.7431 
  97   0.0000       0.185735         5.0541 
  98   0.0000       0.186072         5.0633 
  99   0.0000       0.199068         5.4169 
 100   0.0000       0.214439         5.8352 
 101   0.0000       0.216209         5.8833 
 102   0.0000       0.219609         5.9759 
 103   0.0000       0.223372         6.0783 
 104   0.0000       0.236114         6.4250 
 105   0.0000       0.238827         6.4988 
 106   0.0000       0.240424         6.5423 
 107   0.0000       0.243861         6.6358 
 108   0.0000       0.257777         7.0145 
 109   0.0000       0.271268         7.3816 
 110   0.0000       0.274186         7.4610 
 111   0.0000       0.275316         7.4917 
 112   0.0000       0.277729         7.5574 
 113   0.0000       0.285713         7.7746 
 114   0.0000       0.288563         7.8522 
 115   0.0000       0.294580         8.0159 
 116   0.0000       0.302090         8.2203 
 117   0.0000       0.303608         8.2616 
 118   0.0000       0.319783         8.7017 
 119   0.0000       0.325413         8.8549 
 120   0.0000       0.330310         8.9882 
 121   0.0000       0.349027         9.4975 
 122   0.0000       0.356758         9.7079 
 123   0.0000       0.381828        10.3901 
 124   0.0000       0.385055        10.4779 
 125   0.0000       0.387824        10.5532 
 126   0.0000       0.404825        11.0159 
 127   0.0000       0.410132        11.1603 
 128   0.0000       0.421400        11.4669 
 129   0.0000       0.431413        11.7393 
 130   0.0000       0.445829        12.1316 
 131   0.0000       0.449799        12.2397 
 132   0.0000       0.454284        12.3617 
 133   0.0000       0.465019        12.6538 
 134   0.0000       0.475259        12.9324 
 135   0.0000       0.476310        12.9610 
 136   0.0000       0.489720        13.3260 
 137   0.0000       0.495755        13.4902 
 138   0.0000       0.510309        13.8862 
 139   0.0000       0.524123        14.2621 
 140   0.0000       0.529029        14.3956 
 141   0.0000       0.558537        15.1986 
 142   0.0000       0.571442        15.5497 
 143   0.0000       0.574999        15.6465 
 144   0.0000       0.585823        15.9411 
 145   0.0000       0.598901        16.2969 
 146   0.0000       0.611898        16.6506 
 147   0.0000       0.615277        16.7426 
 148   0.0000       0.619047        16.8451 
 149   0.0000       0.631237        17.1768 
 150   0.0000       0.636692        17.3253 
 151   0.0000       0.638563        17.3762 
 152   0.0000       0.649497        17.6737 
 153   0.0000       0.662153        18.0181 
 154   0.0000       0.664849        18.0915 
 155   0.0000       0.668073        18.1792 
 156   0.0000       0.673253        18.3202 
 157   0.0000       0.679842        18.4994 
 158   0.0000       0.680753        18.5242 
 159   0.0000       0.693436        18.8693 
 160   0.0000       0.697839        18.9892 
 161   0.0000       0.703097        19.1322 
 162   0.0000       0.714438        19.4408 
 163   0.0000       0.720403        19.6032 
 164   0.0000       0.726353        19.7651 
 165   0.0000       0.745044        20.2737 
 166   0.0000       0.751185        20.4408 
 167   0.0000       0.764522        20.8037 
 168   0.0000       0.776776        21.1372 
 169   0.0000       0.778729        21.1903 
 170   0.0000       0.789793        21.4914 
 171   0.0000       0.799087        21.7443 
 172   0.0000       0.804842        21.9009 
 173   0.0000       0.826122        22.4799 
 174   0.0000       0.831647        22.6303 
 175   0.0000       0.837902        22.8005 
 176   0.0000       0.847136        23.0517 
 177   0.0000       0.853073        23.2133 
 178   0.0000       0.855615        23.2825 
 179   0.0000       0.858773        23.3684 
 180   0.0000       0.860980        23.4285 
 181   0.0000       0.865143        23.5417 
 182   0.0000       0.869234        23.6530 
 183   0.0000       0.872893        23.7526 
 184   0.0000       0.877095        23.8670 
 185   0.0000       0.881319        23.9819 
 186   0.0000       0.883136        24.0314 
 187   0.0000       0.884354        24.0645 
 188   0.0000       0.887340        24.1458 
 189   0.0000       0.891311        24.2538 
 190   0.0000       0.897457        24.4210 
 191   0.0000       0.899942        24.4887 
 192   0.0000       0.901422        24.5289 
 193   0.0000       0.904050        24.6004 
 194   0.0000       0.910328        24.7713 
 195   0.0000       0.914337        24.8804 
 196   0.0000       0.918658        24.9980 
 197   0.0000       0.923058        25.1177 
 198   0.0000       0.928307        25.2605 
 199   0.0000       0.935579        25.4584 
 200   0.0000       0.941335        25.6150 
 201   0.0000       0.949363        25.8335 
 202   0.0000       0.953534        25.9470 
 203   0.0000       0.955543        26.0016 
 204   0.0000       0.956574        26.0297 
 205   0.0000       0.970573        26.4106 
 206   0.0000       0.971606        26.4387 
 207   0.0000       0.974686        26.5225 
 208   0.0000       0.976250        26.5651 
 209   0.0000       0.988001        26.8849 
 210   0.0000       0.994999        27.0753 
 211   0.0000       1.002866        27.2894 
 212   0.0000       1.005099        27.3501 
 213   0.0000       1.011310        27.5191 
 214   0.0000       1.019362        27.7383 
 215   0.0000       1.036308        28.1994 
 216   0.0000       1.044334        28.4178 
 217   0.0000       1.050316        28.5806 
 218   0.0000       1.062538        28.9131 
 219   0.0000       1.070833        29.1389 
 220   0.0000       1.082892        29.4670 
 221   0.0000       1.089754        29.6537 
 222   0.0000       1.106521        30.1100 
 223   0.0000       1.109826        30.1999 
 224   0.0000       1.121401        30.5149 
 225   0.0000       1.142581        31.0912 
 226   0.0000       1.147152        31.2156 
 227   0.0000       1.158056        31.5123 
 228   0.0000       1.167482        31.7688 
 229   0.0000       1.181854        32.1599 
 230   0.0000       1.191066        32.4105 
 231   0.0000       1.201456        32.6933 
 232   0.0000       1.219566        33.1861 
 233   0.0000       1.223195        33.2848 
 234   0.0000       1.233654        33.5694 
 235   0.0000       1.250710        34.0335 
 236   0.0000       1.259729        34.2790 
 237   0.0000       1.270948        34.5843 
 238   0.0000       1.290682        35.1213 
 239   0.0000       1.318185        35.8696 
 240   0.0000       1.324820        36.0502 
 241   0.0000       1.336337        36.3636 
 242   0.0000       1.349909        36.7329 
 243   0.0000       1.365519        37.1577 
 244   0.0000       1.379798        37.5462 
 245   0.0000       1.392184        37.8833 
 246   0.0000       1.396503        38.0008 
 247   0.0000       1.409349        38.3503 
 248   0.0000       1.416895        38.5557 
 249   0.0000       1.424650        38.7667 
 250   0.0000       1.427694        38.8495 
 251   0.0000       1.451997        39.5108 
 252   0.0000       1.454837        39.5881 
 253   0.0000       1.470590        40.0168 
 254   0.0000       1.481606        40.3166 
 255   0.0000       1.487164        40.4678 
 256   0.0000       1.510958        41.1153 
 257   0.0000       1.519531        41.3485 
 258   0.0000       1.523659        41.4609 
 259   0.0000       1.524765        41.4910 
 260   0.0000       1.531902        41.6852 
 261   0.0000       1.542007        41.9601 
 262   0.0000       1.548417        42.1346 
 263   0.0000       1.553139        42.2631 
 264   0.0000       1.565022        42.5864 
 265   0.0000       1.574121        42.8340 
 266   0.0000       1.577934        42.9378 
 267   0.0000       1.594155        43.3792 
 268   0.0000       1.614346        43.9286 
 269   0.0000       1.625294        44.2265 
 270   0.0000       1.639661        44.6174 
 271   0.0000       1.672521        45.5116 
 272   0.0000       1.696266        46.1577 
 273   0.0000       1.742845        47.4252 
 274   0.0000       1.748234        47.5719 
 275   0.0000       1.751137        47.6509 
 276   0.0000       1.779418        48.4204 
 277   0.0000       1.797748        48.9192 
 278   0.0000       1.802950        49.0608 
 279   0.0000       1.835372        49.9430 
 280   0.0000       1.841919        50.1212 
 281   0.0000       1.848114        50.2898 
 282   0.0000       1.859666        50.6041 
 283   0.0000       1.883741        51.2592 
 284   0.0000       1.897405        51.6310 
 285   0.0000       1.914392        52.0933 
 286   0.0000       1.926449        52.4214 
 287   0.0000       1.933339        52.6088 
 288   0.0000       1.952872        53.1403 
 289   0.0000       1.955189        53.2034 
 290   0.0000       1.968976        53.5786 
 291   0.0000       1.979703        53.8705 
 292   0.0000       1.990688        54.1694 
 293   0.0000       1.995903        54.3113 
 294   0.0000       2.014270        54.8111 
 295   0.0000       2.017744        54.9056 
 296   0.0000       2.020610        54.9836 
 297   0.0000       2.024593        55.0920 
 298   0.0000       2.025529        55.1174 
 299   0.0000       2.031108        55.2693 
 300   0.0000       2.034350        55.3575 
 301   0.0000       2.043805        55.6148 
 302   0.0000       2.050107        55.7862 
 303   0.0000       2.055550        55.9344 
 304   0.0000       2.066320        56.2274 
 305   0.0000       2.068211        56.2789 
 306   0.0000       2.086352        56.7725 
 307   0.0000       2.089707        56.8638 
 308   0.0000       2.094372        56.9908 
 309   0.0000       2.100326        57.1528 
 310   0.0000       2.118298        57.6418 
 311   0.0000       2.124848        57.8200 
 312   0.0000       2.134093        58.0716 
 313   0.0000       2.138231        58.1842 
 314   0.0000       2.150425        58.5160 
 315   0.0000       2.156183        58.6727 
 316   0.0000       2.164339        58.8947 
 317   0.0000       2.166237        58.9463 
 318   0.0000       2.177662        59.2572 
 319   0.0000       2.185358        59.4666 
 320   0.0000       2.197135        59.7871 
 321   0.0000       2.204401        59.9848 
 322   0.0000       2.215529        60.2876 
 323   0.0000       2.220543        60.4240 
 324   0.0000       2.225783        60.5666 
 325   0.0000       2.232279        60.7434 
 326   0.0000       2.247261        61.1511 
 327   0.0000       2.251760        61.2735 
 328   0.0000       2.256363        61.3988 
 329   0.0000       2.261590        61.5410 
 330   0.0000       2.265015        61.6342 
 331   0.0000       2.270660        61.7878 
 332   0.0000       2.274484        61.8919 
 333   0.0000       2.275196        61.9112 
 334   0.0000       2.281902        62.0937 
 335   0.0000       2.294498        62.4365 
 336   0.0000       2.322952        63.2107 
 337   0.0000       2.328432        63.3598 
 338   0.0000       2.332461        63.4695 
 339   0.0000       2.347688        63.8838 
 340   0.0000       2.355838        64.1056 
 341   0.0000       2.375482        64.6402 
 342   0.0000       2.376057        64.6558 
 343   0.0000       2.391157        65.0667 
 344   0.0000       2.425654        66.0054 
 345   0.0000       2.427424        66.0536 
 346   0.0000       2.434604        66.2490 
 347   0.0000       2.449422        66.6522 
 348   0.0000       2.451966        66.7214 
 349   0.0000       2.463360        67.0314 
 350   0.0000       2.475034        67.3491 
 351   0.0000       2.497309        67.9552 
 352   0.0000       2.515492        68.4500 
 353   0.0000       2.522945        68.6528 
 354   0.0000       2.540977        69.1435 
 355   0.0000       2.571812        69.9826 
 356   0.0000       2.595398        70.6244 
 357   0.0000       2.600307        70.7579 
 358   0.0000       2.605660        70.9036 
 359   0.0000       2.617487        71.2255 
 360   0.0000       2.620209        71.2995 
 361   0.0000       2.627241        71.4909 
 362   0.0000       2.647977        72.0551 
 363   0.0000       2.649930        72.1083 
 364   0.0000       2.673681        72.7545 
 365   0.0000       2.677053        72.8463 
 366   0.0000       2.687975        73.1435 
 367   0.0000       2.698842        73.4392 
 368   0.0000       2.704794        73.6012 
 369   0.0000       2.713840        73.8473 
 370   0.0000       2.718552        73.9756 
 371   0.0000       2.733087        74.3711 
 372   0.0000       2.764535        75.2268 
 373   0.0000       2.774013        75.4847 
 374   0.0000       2.790713        75.9392 
 375   0.0000       2.814228        76.5790 
 376   0.0000       2.817860        76.6779 
 377   0.0000       2.843032        77.3628 
 378   0.0000       2.852872        77.6306 
 379   0.0000       2.859984        77.8241 
 380   0.0000       2.869327        78.0783 
 381   0.0000       2.886037        78.5331 
 382   0.0000       2.905943        79.0747 
 383   0.0000       2.926169        79.6251 
 384   0.0000       2.935766        79.8863 
 385   0.0000       2.950975        80.3001 
 386   0.0000       2.953945        80.3809 
 387   0.0000       2.963362        80.6372 
 388   0.0000       2.975907        80.9785 
 389   0.0000       3.007450        81.8369 
 390   0.0000       3.016964        82.0958 
 391   0.0000       3.043624        82.8212 
 392   0.0000       3.056889        83.1822 
 393   0.0000       3.065175        83.4077 
 394   0.0000       3.068764        83.5053 
 395   0.0000       3.087023        84.0022 
 396   0.0000       3.095892        84.2435 
 397   0.0000       3.109656        84.6180 
 398   0.0000       3.118034        84.8460 
 399   0.0000       3.170966        86.2864 
 400   0.0000       3.186159        86.6998 
 401   0.0000       3.189802        86.7989 
 402   0.0000       3.201401        87.1146 
 403   0.0000       3.206110        87.2427 
 404   0.0000       3.207512        87.2808 
 405   0.0000       3.215422        87.4961 
 406   0.0000       3.222580        87.6909 
 407   0.0000       3.225341        87.7660 
 408   0.0000       3.246095        88.3307 
 409   0.0000       3.262601        88.7799 
 410   0.0000       3.273984        89.0896 
 411   0.0000       3.281555        89.2957 
 412   0.0000       3.311578        90.1126 
 413   0.0000       3.332045        90.6695 
 414   0.0000       3.336026        90.7779 
 415   0.0000       3.345593        91.0382 
 416   0.0000       3.383319        92.0648 
 417   0.0000       3.410055        92.7923 
 418   0.0000       3.424906        93.1964 
 419   0.0000       3.430499        93.3486 
 420   0.0000       3.460700        94.1704 
 421   0.0000       3.475144        94.5635 
 422   0.0000       3.504360        95.3585 
 423   0.0000       3.531944        96.1091 
 424   0.0000       3.550076        96.6025 
 425   0.0000       3.568016        97.0907 
 426   0.0000       3.584826        97.5481 
 427   0.0000       3.609090        98.2083 
 428   0.0000       3.654363        99.4403 
 429   0.0000       3.677165       100.0607 
 430   0.0000       3.758022       102.2610 
 431   0.0000       3.795113       103.2703 
 432   0.0000       3.837385       104.4206 
 433   0.0000       3.998499       108.8047 
 434   0.0000       4.087122       111.2163 

                    ********************************
                    * MULLIKEN POPULATION ANALYSIS *
                    ********************************

-----------------------
MULLIKEN ATOMIC CHARGES
-----------------------
   0 C :   -0.034158
   1 C :   -0.030397
   2 C :   -0.027731
   3 C :   -0.153227
   4 C :    0.298828
   5 N :   -0.490591
   6 C :    0.284798
   7 N :   -0.324340
   8 C :   -0.046273
   9 C :    0.502610
  10 N :   -0.351656
  11 C :    0.068276
  12 C :    0.323839
  13 N :   -0.671692
  14 C :    0.198000
  15 C :   -0.113916
  16 S :   -0.139062
  17 C :   -0.108350
  18 C :    0.177308
  19 N :   -0.080389
  20 O :   -0.415836
  21 C :    0.163303
  22 C :   -0.021688
  23 C :   -0.030662
  24 H :    0.049584
  25 H :    0.049004
  26 H :    0.035578
  27 H :    0.058596
  28 H :    0.060362
  29 H :    0.063831
  30 H :    0.053280
  31 H :    0.034407
  32 H :    0.031609
  33 H :    0.051274
  34 H :    0.076516
  35 H :    0.080185
  36 H :    0.075415
  37 H :    0.065612
  38 H :    0.038379
  39 H :    0.045770
  40 H :    0.070301
  41 H :    0.034233
  42 H :    0.049067
Sum of atomic charges:    0.0000000

--------------------------------
MULLIKEN REDUCED ORBITAL CHARGES
--------------------------------
  0 C s       :     3.129813  s :     3.129813
      pz      :     0.950213  p :     2.860420
      px      :     0.958636
      py      :     0.951571
      dz2     :     0.012714  d :     0.043926
      dxz     :     0.010294
      dyz     :     0.010849
      dx2y2   :     0.003951
      dxy     :     0.006117
  1 C s       :     3.129755  s :     3.129755
      pz      :     0.941293  p :     2.856727
      px      :     0.962155
      py      :     0.953280
      dz2     :     0.010645  d :     0.043914
      dxz     :     0.008811
      dyz     :     0.009980
      dx2y2   :     0.007148
      dxy     :     0.007330
  2 C s       :     3.151507  s :     3.151507
      pz      :     0.928955  p :     2.833124
      px      :     0.957370
      py      :     0.946798
      dz2     :     0.010234  d :     0.043100
      dxz     :     0.009337
      dyz     :     0.009910
      dx2y2   :     0.006601
      dxy     :     0.007017
  3 C s       :     3.036000  s :     3.036000
      pz      :     1.031859  p :     3.065687
      px      :     1.008121
      py      :     1.025708
      dz2     :     0.013391  d :     0.051539
      dxz     :     0.011275
      dyz     :     0.012655
      dx2y2   :     0.005560
      dxy     :     0.008658
  4 C s       :     2.974877  s :     2.974877
      pz      :     0.998434  p :     2.667242
      px      :     0.730778
      py      :     0.938031
      dz2     :     0.009314  d :     0.059052
      dxz     :     0.008906
      dyz     :     0.010862
      dx2y2   :     0.013189
      dxy     :     0.016781
  5 N s       :     3.477578  s :     3.477578
      pz      :     1.204221  p :     3.976416
      px      :     1.260313
      py      :     1.511882
      dz2     :     0.008800  d :     0.036596
      dxz     :     0.010507
      dyz     :     0.006571
      dx2y2   :     0.005166
      dxy     :     0.005552
  6 C s       :     3.044856  s :     3.044856
      pz      :     0.754511  p :     2.586576
      px      :     0.882304
      py      :     0.949762
      dz2     :     0.020121  d :     0.083769
      dxz     :     0.025855
      dyz     :     0.012013
      dx2y2   :     0.011528
      dxy     :     0.014252
  7 N s       :     3.592759  s :     3.592759
      pz      :     1.369172  p :     3.695285
      px      :     1.171577
      py      :     1.154537
      dz2     :     0.011223  d :     0.036296
      dxz     :     0.005564
      dyz     :     0.006005
      dx2y2   :     0.007268
      dxy     :     0.006236
  8 C s       :     3.070994  s :     3.070994
      pz      :     0.900619  p :     2.908211
      px      :     0.932662
      py      :     1.074930
      dz2     :     0.016468  d :     0.067068
      dxz     :     0.021561
      dyz     :     0.013668
      dx2y2   :     0.006951
      dxy     :     0.008419
  9 C s       :     3.034661  s :     3.034661
      pz      :     0.690999  p :     2.360181
      px      :     0.864160
      py      :     0.805022
      dz2     :     0.030789  d :     0.102548
      dxz     :     0.025006
      dyz     :     0.020312
      dx2y2   :     0.012927
      dxy     :     0.013513
 10 N s       :     3.610267  s :     3.610267
      pz      :     1.457326  p :     3.705880
      px      :     1.032726
      py      :     1.215828
      dz2     :     0.005051  d :     0.035509
      dxz     :     0.015668
      dyz     :     0.008246
      dx2y2   :     0.002966
      dxy     :     0.003577
 11 C s       :     3.086891  s :     3.086891
      pz      :     0.851840  p :     2.754584
      px      :     1.022999
      py      :     0.879745
      dz2     :     0.024948  d :     0.090249
      dxz     :     0.024793
      dyz     :     0.017461
      dx2y2   :     0.011373
      dxy     :     0.011674
 12 C s       :     2.906587  s :     2.906587
      pz      :     1.016568  p :     2.711295
      px      :     0.821991
      py      :     0.872737
      dz2     :     0.009751  d :     0.058279
      dxz     :     0.007561
      dyz     :     0.011214
      dx2y2   :     0.013837
      dxy     :     0.015916
 13 N s       :     3.621142  s :     3.621142
      pz      :     1.293180  p :     4.019234
      px      :     1.244363
      py      :     1.481690
      dz2     :     0.008331  d :     0.031317
      dxz     :     0.006662
      dyz     :     0.004091
      dx2y2   :     0.004266
      dxy     :     0.007968
 14 C s       :     2.995341  s :     2.995341
      pz      :     0.798681  p :     2.747264
      px      :     0.964969
      py      :     0.983614
      dz2     :     0.015027  d :     0.059395
      dxz     :     0.007861
      dyz     :     0.017975
      dx2y2   :     0.006333
      dxy     :     0.012199
 15 C s       :     3.124406  s :     3.124406
      pz      :     1.060819  p :     2.944111
      px      :     0.886135
      py      :     0.997158
      dz2     :     0.008978  d :     0.045400
      dxz     :     0.003620
      dyz     :     0.011084
      dx2y2   :     0.008124
      dxy     :     0.013594
 16 S s       :     5.892204  s :     5.892204
      pz      :     3.582324  p :    10.153956
      px      :     3.314712
      py      :     3.256920
      dz2     :     0.012255  d :     0.092902
      dxz     :     0.014344
      dyz     :     0.020113
      dx2y2   :     0.011206
      dxy     :     0.034984
 17 C s       :     3.119020  s :     3.119020
      pz      :     0.973987  p :     2.944094
      px      :     0.980808
      py      :     0.989298
      dz2     :     0.003998  d :     0.045236
      dxz     :     0.012045
      dyz     :     0.012651
      dx2y2   :     0.007119
      dxy     :     0.009423
 18 C s       :     3.012959  s :     3.012959
      pz      :     0.925335  p :     2.749440
      px      :     0.814485
      py      :     1.009620
      dz2     :     0.005800  d :     0.060292
      dxz     :     0.017819
      dyz     :     0.013156
      dx2y2   :     0.010592
      dxy     :     0.012925
 19 N s       :     3.668918  s :     3.668918
      pz      :     1.330833  p :     3.364522
      px      :     0.785890
      py      :     1.247799
      dz2     :     0.015720  d :     0.046949
      dxz     :     0.005659
      dyz     :     0.007166
      dx2y2   :     0.008524
      dxy     :     0.009879
 20 O s       :     3.822304  s :     3.822304
      pz      :     1.510532  p :     4.567727
      px      :     1.399848
      py      :     1.657347
      dz2     :     0.008104  d :     0.025805
      dxz     :     0.004732
      dyz     :     0.004004
      dx2y2   :     0.004968
      dxy     :     0.003998
 21 C s       :     3.095583  s :     3.095583
      pz      :     0.897526  p :     2.682667
      px      :     0.816985
      py      :     0.968157
      dz2     :     0.010490  d :     0.058447
      dxz     :     0.018986
      dyz     :     0.007879
      dx2y2   :     0.009963
      dxy     :     0.011129
 22 C s       :     3.149339  s :     3.149339
      pz      :     0.924843  p :     2.829349
      px      :     0.958641
      py      :     0.945865
      dz2     :     0.010190  d :     0.042999
      dxz     :     0.008689
      dyz     :     0.009905
      dx2y2   :     0.007135
      dxy     :     0.007081
 23 C s       :     3.129587  s :     3.129587
      pz      :     0.944028  p :     2.857112
      px      :     0.958137
      py      :     0.954947
      dz2     :     0.010781  d :     0.043964
      dxz     :     0.009342
      dyz     :     0.010094
      dx2y2   :     0.006645
      dxy     :     0.007103
 24 H s       :     0.924893  s :     0.924893
      pz      :     0.002556  p :     0.025524
      px      :     0.010431
      py      :     0.012537
 25 H s       :     0.925425  s :     0.925425
      pz      :     0.015212  p :     0.025571
      px      :     0.003493
      py      :     0.006866
 26 H s       :     0.938835  s :     0.938835
      pz      :     0.013766  p :     0.025587
      px      :     0.007640
      py      :     0.004181
 27 H s       :     0.917167  s :     0.917167
      pz      :     0.015389  p :     0.024237
      px      :     0.002423
      py      :     0.006425
 28 H s       :     0.915200  s :     0.915200
      pz      :     0.008816  p :     0.024438
      px      :     0.004120
      py      :     0.011501
 29 H s       :     0.910137  s :     0.910137
      pz      :     0.012859  p :     0.026032
      px      :     0.006848
      py      :     0.006325
 30 H s       :     0.922375  s :     0.922375
      pz      :     0.016542  p :     0.024344
      px      :     0.003030
      py      :     0.004773
 31 H s       :     0.941988  s :     0.941988
      pz      :     0.007914  p :     0.023605
      px      :     0.004207
      py      :     0.011484
 32 H s       :     0.945370  s :     0.945370
      pz      :     0.009065  p :     0.023022
      px      :     0.002825
      py      :     0.011132
 33 H s       :     0.925234  s :     0.925234
      pz      :     0.003453  p :     0.023492
      px      :     0.011250
      py      :     0.008789
 34 H s       :     0.899698  s :     0.899698
      pz      :     0.010308  p :     0.023786
      px      :     0.002602
      py      :     0.010876
 35 H s       :     0.895261  s :     0.895261
      pz      :     0.016000  p :     0.024554
      px      :     0.002992
      py      :     0.005562
 36 H s       :     0.900084  s :     0.900084
      pz      :     0.009231  p :     0.024501
      px      :     0.010949
      py      :     0.004321
 37 H s       :     0.910707  s :     0.910707
      pz      :     0.007212  p :     0.023681
      px      :     0.004275
      py      :     0.012195
 38 H s       :     0.937479  s :     0.937479
      pz      :     0.011333  p :     0.024142
      px      :     0.003392
      py      :     0.009417
 39 H s       :     0.931254  s :     0.931254
      pz      :     0.006004  p :     0.022976
      px      :     0.003536
      py      :     0.013436
 40 H s       :     0.902711  s :     0.902711
      pz      :     0.019773  p :     0.026987
      px      :     0.002361
      py      :     0.004853
 41 H s       :     0.940185  s :     0.940185
      pz      :     0.015663  p :     0.025582
      px      :     0.003602
      py      :     0.006316
 42 H s       :     0.925369  s :     0.925369
      pz      :     0.013359  p :     0.025563
      px      :     0.007755
      py      :     0.004450


                     *******************************
                     * LOEWDIN POPULATION ANALYSIS *
                     *******************************

----------------------
LOEWDIN ATOMIC CHARGES
----------------------
   0 C :   -0.019092
   1 C :   -0.015645
   2 C :   -0.024055
   3 C :   -0.050281
   4 C :    0.099202
   5 N :   -0.013760
   6 C :    0.081569
   7 N :   -0.151920
   8 C :   -0.064594
   9 C :    0.181796
  10 N :   -0.187438
  11 C :    0.051860
  12 C :    0.071221
  13 N :   -0.199764
  14 C :    0.050691
  15 C :   -0.118674
  16 S :    0.172090
  17 C :   -0.131566
  18 C :    0.050552
  19 N :   -0.098072
  20 O :   -0.107876
  21 C :    0.029517
  22 C :   -0.020912
  23 C :   -0.015029
  24 H :    0.030254
  25 H :    0.030777
  26 H :    0.024699
  27 H :    0.030200
  28 H :    0.031774
  29 H :    0.023301
  30 H :    0.032022
  31 H :    0.009547
  32 H :    0.002494
  33 H :    0.017743
  34 H :    0.015508
  35 H :    0.026364
  36 H :    0.022614
  37 H :    0.009704
  38 H :    0.018632
  39 H :    0.014797
  40 H :    0.034409
  41 H :    0.024545
  42 H :    0.030795

-------------------------------
LOEWDIN REDUCED ORBITAL CHARGES
-------------------------------
  0 C s       :     2.852672  s :     2.852672
      pz      :     1.060153  p :     3.067982
      px      :     1.001060
      py      :     1.006769
      dz2     :     0.030595  d :     0.098438
      dxz     :     0.023057
      dyz     :     0.024425
      dx2y2   :     0.006637
      dxy     :     0.013725
  1 C s       :     2.852757  s :     2.852757
      pz      :     1.043391  p :     3.064547
      px      :     1.008793
      py      :     1.012363
      dz2     :     0.024947  d :     0.098341
      dxz     :     0.019652
      dyz     :     0.023113
      dx2y2   :     0.014190
      dxy     :     0.016439
  2 C s       :     2.852346  s :     2.852346
      pz      :     1.035980  p :     3.073590
      px      :     1.014216
      py      :     1.023394
      dz2     :     0.024111  d :     0.098119
      dxz     :     0.022000
      dyz     :     0.023415
      dx2y2   :     0.012991
      dxy     :     0.015602
  3 C s       :     2.851958  s :     2.851958
      pz      :     1.078875  p :     3.086120
      px      :     1.002324
      py      :     1.004922
      dz2     :     0.031137  d :     0.112202
      dxz     :     0.024954
      dyz     :     0.027637
      dx2y2   :     0.010593
      dxy     :     0.017882
  4 C s       :     2.816751  s :     2.816751
      pz      :     1.042391  p :     2.952531
      px      :     0.891733
      py      :     1.018408
      dz2     :     0.020965  d :     0.131517
      dxz     :     0.019731
      dyz     :     0.024862
      dx2y2   :     0.027950
      dxy     :     0.038009
  5 N s       :     3.062223  s :     3.062223
      pz      :     1.215885  p :     3.876187
      px      :     1.226187
      py      :     1.434115
      dz2     :     0.019246  d :     0.075351
      dxz     :     0.023479
      dyz     :     0.012784
      dx2y2   :     0.009761
      dxy     :     0.010081
  6 C s       :     2.839908  s :     2.839908
      pz      :     0.923259  p :     2.901531
      px      :     1.000265
      py      :     0.978007
      dz2     :     0.045755  d :     0.176992
      dxz     :     0.057121
      dyz     :     0.024583
      dx2y2   :     0.022337
      dxy     :     0.027197
  7 N s       :     3.240350  s :     3.240350
      pz      :     1.415736  p :     3.846001
      px      :     1.262083
      py      :     1.168182
      dz2     :     0.020669  d :     0.065569
      dxz     :     0.011064
      dyz     :     0.009458
      dx2y2   :     0.013408
      dxy     :     0.010972
  8 C s       :     2.852184  s :     2.852184
      pz      :     1.004307  p :     3.070083
      px      :     1.004215
      py      :     1.061560
      dz2     :     0.037368  d :     0.142327
      dxz     :     0.048433
      dyz     :     0.026952
      dx2y2   :     0.013514
      dxy     :     0.016060
  9 C s       :     2.876558  s :     2.876558
      pz      :     0.883560  p :     2.738105
      px      :     1.009628
      py      :     0.844917
      dz2     :     0.064483  d :     0.203541
      dxz     :     0.054166
      dyz     :     0.039018
      dx2y2   :     0.022868
      dxy     :     0.023006
 10 N s       :     3.254734  s :     3.254734
      pz      :     1.524528  p :     3.868318
      px      :     1.124995
      py      :     1.218795
      dz2     :     0.007532  d :     0.064386
      dxz     :     0.030922
      dyz     :     0.010710
      dx2y2   :     0.007424
      dxy     :     0.007797
 11 C s       :     2.870186  s :     2.870186
      pz      :     1.008291  p :     2.894212
      px      :     1.011718
      py      :     0.874204
      dz2     :     0.055766  d :     0.183741
      dxz     :     0.053132
      dyz     :     0.032953
      dx2y2   :     0.020643
      dxy     :     0.021247
 12 C s       :     2.826305  s :     2.826305
      pz      :     1.056158  p :     2.973767
      px      :     0.952187
      py      :     0.965422
      dz2     :     0.021335  d :     0.128707
      dxz     :     0.016666
      dyz     :     0.025201
      dx2y2   :     0.031202
      dxy     :     0.034303
 13 N s       :     3.152176  s :     3.152176
      pz      :     1.287672  p :     3.989393
      px      :     1.237651
      py      :     1.464070
      dz2     :     0.015098  d :     0.058195
      dxz     :     0.013282
      dyz     :     0.007673
      dx2y2   :     0.007708
      dxy     :     0.014435
 14 C s       :     2.834668  s :     2.834668
      pz      :     0.917059  p :     2.985877
      px      :     1.034795
      py      :     1.034024
      dz2     :     0.032001  d :     0.128764
      dxz     :     0.017117
      dyz     :     0.039951
      dx2y2   :     0.013479
      dxy     :     0.026215
 15 C s       :     2.891803  s :     2.891803
      pz      :     1.084609  p :     3.132159
      px      :     1.006765
      py      :     1.040785
      dz2     :     0.018919  d :     0.094712
      dxz     :     0.007128
      dyz     :     0.024318
      dx2y2   :     0.017207
      dxy     :     0.027140
 16 S s       :     5.545089  s :     5.545089
      pz      :     3.562194  p :    10.172928
      px      :     3.361973
      py      :     3.248761
      dz2     :     0.013981  d :     0.109892
      dxz     :     0.016074
      dyz     :     0.024940
      dx2y2   :     0.013654
      dxy     :     0.041243
 17 C s       :     2.894763  s :     2.894763
      pz      :     1.048107  p :     3.141891
      px      :     1.055396
      py      :     1.038388
      dz2     :     0.008169  d :     0.094913
      dxz     :     0.026240
      dyz     :     0.025639
      dx2y2   :     0.014975
      dxy     :     0.019889
 18 C s       :     2.832801  s :     2.832801
      pz      :     0.987795  p :     2.985946
      px      :     0.944299
      py      :     1.053853
      dz2     :     0.012192  d :     0.130701
      dxz     :     0.038775
      dyz     :     0.029000
      dx2y2   :     0.022689
      dxy     :     0.028044
 19 N s       :     3.367958  s :     3.367958
      pz      :     1.427596  p :     3.644465
      px      :     0.942248
      py      :     1.274621
      dz2     :     0.028821  d :     0.085649
      dxz     :     0.011964
      dyz     :     0.009336
      dx2y2   :     0.016896
      dxy     :     0.018632
 20 O s       :     3.493845  s :     3.493845
      pz      :     1.533006  p :     4.571809
      px      :     1.401404
      py      :     1.637398
      dz2     :     0.013380  d :     0.042222
      dxz     :     0.008114
      dyz     :     0.005781
      dx2y2   :     0.007982
      dxy     :     0.006965
 21 C s       :     2.850190  s :     2.850190
      pz      :     1.030344  p :     2.989601
      px      :     0.959350
      py      :     0.999907
      dz2     :     0.025167  d :     0.130692
      dxz     :     0.044629
      dyz     :     0.015054
      dx2y2   :     0.021954
      dxy     :     0.023888
 22 C s       :     2.851830  s :     2.851830
      pz      :     1.033960  p :     3.071141
      px      :     1.016001
      py      :     1.021180
      dz2     :     0.024507  d :     0.097941
      dxz     :     0.019840
      dyz     :     0.023450
      dx2y2   :     0.014081
      dxy     :     0.016062
 23 C s       :     2.852686  s :     2.852686
      pz      :     1.046272  p :     3.063933
      px      :     1.002296
      py      :     1.015365
      dz2     :     0.024977  d :     0.098410
      dxz     :     0.021383
      dyz     :     0.023287
      dx2y2   :     0.013030
      dxy     :     0.015733
 24 H s       :     0.901381  s :     0.901381
      pz      :     0.010613  p :     0.068365
      px      :     0.026784
      py      :     0.030968
 25 H s       :     0.900931  s :     0.900931
      pz      :     0.036389  p :     0.068292
      px      :     0.012566
      py      :     0.019337
 26 H s       :     0.906923  s :     0.906923
      pz      :     0.033324  p :     0.068378
      px      :     0.021175
      py      :     0.013878
 27 H s       :     0.905008  s :     0.905008
      pz      :     0.037211  p :     0.064792
      px      :     0.009433
      py      :     0.018148
 28 H s       :     0.903321  s :     0.903321
      pz      :     0.023042  p :     0.064905
      px      :     0.012804
      py      :     0.029058
 29 H s       :     0.906216  s :     0.906216
      pz      :     0.032249  p :     0.070482
      px      :     0.019115
      py      :     0.019119
 30 H s       :     0.902956  s :     0.902956
      pz      :     0.040011  p :     0.065021
      px      :     0.011046
      py      :     0.013964
 31 H s       :     0.923873  s :     0.923873
      pz      :     0.021539  p :     0.066580
      px      :     0.013951
      py      :     0.031089
 32 H s       :     0.931111  s :     0.931111
      pz      :     0.025813  p :     0.066396
      px      :     0.012073
      py      :     0.028510
 33 H s       :     0.916632  s :     0.916632
      pz      :     0.011864  p :     0.065625
      px      :     0.029781
      py      :     0.023981
 34 H s       :     0.914094  s :     0.914094
      pz      :     0.026498  p :     0.070398
      px      :     0.012325
      py      :     0.031576
 35 H s       :     0.904440  s :     0.904440
      pz      :     0.038857  p :     0.069196
      px      :     0.012160
      py      :     0.018179
 36 H s       :     0.907776  s :     0.907776
      pz      :     0.025661  p :     0.069611
      px      :     0.028412
      py      :     0.015538
 37 H s       :     0.919945  s :     0.919945
      pz      :     0.020480  p :     0.070351
      px      :     0.015709
      py      :     0.034162
 38 H s       :     0.916420  s :     0.916420
      pz      :     0.029244  p :     0.064948
      px      :     0.011600
      py      :     0.024103
 39 H s       :     0.920537  s :     0.920537
      pz      :     0.019049  p :     0.064666
      px      :     0.012766
      py      :     0.032851
 40 H s       :     0.892019  s :     0.892019
      pz      :     0.047856  p :     0.073573
      px      :     0.009692
      py      :     0.016024
 41 H s       :     0.907120  s :     0.907120
      pz      :     0.037159  p :     0.068334
      px      :     0.012826
      py      :     0.018349
 42 H s       :     0.900952  s :     0.900952
      pz      :     0.032614  p :     0.068253
      px      :     0.021248
      py      :     0.014391


                      *****************************
                      * MAYER POPULATION ANALYSIS *
                      *****************************

  NA   - Mulliken gross atomic population
  ZA   - Total nuclear charge
  QA   - Mulliken gross atomic charge
  VA   - Mayer's total valence
  BVA  - Mayer's bonded valence
  FA   - Mayer's free valence

  ATOM       NA         ZA         QA         VA         BVA        FA
  0 C      6.0342     6.0000    -0.0342     3.8705     3.8705     0.0000
  1 C      6.0304     6.0000    -0.0304     3.8969     3.8969    -0.0000
  2 C      6.0277     6.0000    -0.0277     3.9181     3.9181     0.0000
  3 C      6.1532     6.0000    -0.1532     3.8059     3.8059     0.0000
  4 C      5.7012     6.0000     0.2988     3.8328     3.8328     0.0000
  5 N      7.4906     7.0000    -0.4906     3.1539     3.1539    -0.0000
  6 C      5.7152     6.0000     0.2848     3.8759     3.8759     0.0000
  7 N      7.3243     7.0000    -0.3243     3.0418     3.0418     0.0000
  8 C      6.0463     6.0000    -0.0463     3.9721     3.9721    -0.0000
  9 C      5.4974     6.0000     0.5026     3.8119     3.8119    -0.0000
 10 N      7.3517     7.0000    -0.3517     2.9382     2.9382    -0.0000
 11 C      5.9317     6.0000     0.0683     4.0244     4.0244     0.0000
 12 C      5.6762     6.0000     0.3238     3.8512     3.8512    -0.0000
 13 N      7.6717     7.0000    -0.6717     2.7842     2.7842    -0.0000
 14 C      5.8020     6.0000     0.1980     3.8189     3.8189     0.0000
 15 C      6.1139     6.0000    -0.1139     3.9272     3.9272     0.0000
 16 S     16.1391    16.0000    -0.1391     1.9353     1.9353    -0.0000
 17 C      6.1083     6.0000    -0.1083     3.8898     3.8898    -0.0000
 18 C      5.8227     6.0000     0.1773     3.8546     3.8546    -0.0000
 19 N      7.0804     7.0000    -0.0804     2.6562     2.6562     0.0000
 20 O      8.4158     8.0000    -0.4158     2.0489     2.0489     0.0000
 21 C      5.8367     6.0000     0.1633     3.7824     3.7824    -0.0000
 22 C      6.0217     6.0000    -0.0217     3.9142     3.9142     0.0000
 23 C      6.0307     6.0000    -0.0307     3.8997     3.8997    -0.0000
 24 H      0.9504     1.0000     0.0496     0.9856     0.9856     0.0000
 25 H      0.9510     1.0000     0.0490     0.9856     0.9856    -0.0000
 26 H      0.9644     1.0000     0.0356     0.9935     0.9935     0.0000
 27 H      0.9414     1.0000     0.0586     0.9897     0.9897    -0.0000
 28 H      0.9396     1.0000     0.0604     0.9899     0.9899     0.0000
 29 H      0.9362     1.0000     0.0638     1.0047     1.0047    -0.0000
 30 H      0.9467     1.0000     0.0533     0.9950     0.9950    -0.0000
 31 H      0.9656     1.0000     0.0344     0.9909     0.9909    -0.0000
 32 H      0.9684     1.0000     0.0316     0.9822     0.9822     0.0000
 33 H      0.9487     1.0000     0.0513     0.9794     0.9794     0.0000
 34 H      0.9235     1.0000     0.0765     0.9599     0.9599    -0.0000
 35 H      0.9198     1.0000     0.0802     0.9723     0.9723    -0.0000
 36 H      0.9246     1.0000     0.0754     0.9713     0.9713     0.0000
 37 H      0.9344     1.0000     0.0656     0.9644     0.9644    -0.0000
 38 H      0.9616     1.0000     0.0384     0.9852     0.9852     0.0000
 39 H      0.9542     1.0000     0.0458     0.9763     0.9763    -0.0000
 40 H      0.9297     1.0000     0.0703     1.0078     1.0078    -0.0000
 41 H      0.9658     1.0000     0.0342     0.9946     0.9946     0.0000
 42 H      0.9509     1.0000     0.0491     0.9856     0.9856    -0.0000

  Mayer bond orders larger than 0.100000
B(  0-C ,  1-C ) :   1.4192 B(  0-C , 23-C ) :   1.4117 B(  0-C , 24-H ) :   0.9992 
B(  1-C ,  2-C ) :   1.4278 B(  1-C , 25-H ) :   0.9987 B(  2-C ,  3-C ) :   1.4183 
B(  2-C , 26-H ) :   1.0012 B(  3-C ,  4-C ) :   0.9969 B(  3-C , 22-C ) :   1.4062 
B(  4-C ,  5-N ) :   0.8706 B(  4-C , 27-H ) :   0.9854 B(  4-C , 28-H ) :   0.9838 
B(  5-N ,  6-C ) :   1.1547 B(  5-N , 21-C ) :   1.1373 B(  6-C ,  7-N ) :   1.6605 
B(  6-C , 29-H ) :   0.9923 B(  7-N ,  8-C ) :   1.3441 B(  8-C ,  9-C ) :   1.0489 
B(  8-C , 21-C ) :   1.5797 B(  9-C , 10-N ) :   1.6759 B(  9-C , 20-O ) :   1.0823 
B( 10-N , 11-C ) :   1.2600 B( 11-C , 12-C ) :   1.0058 B( 11-C , 19-N ) :   1.7029 
B( 12-C , 13-N ) :   0.9678 B( 12-C , 30-H ) :   0.9557 B( 12-C , 31-H ) :   0.9713 
B( 13-N , 14-C ) :   0.9015 B( 13-N , 18-C ) :   0.9314 B( 14-C , 15-C ) :   1.0321 
B( 14-C , 32-H ) :   0.9642 B( 14-C , 33-H ) :   0.9681 B( 15-C , 16-S ) :   0.9798 
B( 15-C , 34-H ) :   0.9560 B( 15-C , 35-H ) :   0.9710 B( 16-S , 17-C ) :   0.9739 
B( 17-C , 18-C ) :   1.0131 B( 17-C , 36-H ) :   0.9689 B( 17-C , 37-H ) :   0.9583 
B( 18-C , 38-H ) :   0.9756 B( 18-C , 39-H ) :   0.9737 B( 19-N , 20-O ) :   0.8749 
B( 21-C , 40-H ) :   0.9904 B( 22-C , 23-C ) :   1.4370 B( 22-C , 41-H ) :   1.0012 
B( 23-C , 42-H ) :   0.9988 

-------
TIMINGS
-------

Total SCF time: 0 days 0 hours 0 min 23 sec 

Total time                  ....      23.139 sec
Sum of individual times     ....      22.783 sec  ( 98.5%)

Fock matrix formation       ....      21.660 sec  ( 93.6%)
Diagonalization             ....       0.317 sec  (  1.4%)
Density matrix formation    ....       0.028 sec  (  0.1%)
Population analysis         ....       0.043 sec  (  0.2%)
Initial guess               ....       0.149 sec  (  0.6%)
Orbital Transformation      ....       0.000 sec  (  0.0%)
Orbital Orthonormalization  ....       0.000 sec  (  0.0%)
DIIS solution               ....       0.150 sec  (  0.6%)
SOSCF solution              ....       0.249 sec  (  1.1%)

Maximum memory used throughout the entire SCF-calculation: 240.5 MB

-------------------------   --------------------
FINAL SINGLE POINT ENERGY     -1398.488944006936
-------------------------   --------------------


                            ***************************************
                            *     ORCA property calculations      *
                            ***************************************

                                    ---------------------
                                    Active property flags
                                    ---------------------
   (+) Dipole Moment


------------------------------------------------------------------------------
                       ORCA ELECTRIC PROPERTIES CALCULATION
------------------------------------------------------------------------------

Dipole Moment Calculation                       ... on
Quadrupole Moment Calculation                   ... off
Polarizability Calculation                      ... off
GBWName                                         ... ./ZINC000000000213/ZINC000000000213.gbw
Electron density                                ... ./ZINC000000000213/ZINC000000000213.scfp
The origin for moment calculation is the CENTER OF MASS  = (-0.472657, -0.031413 -0.077120)

-------------
DIPOLE MOMENT
-------------
                                X             Y             Z
Electronic contribution:      4.63517      -1.17427      -1.13724
Nuclear contribution   :     -1.87969       0.78483       0.97894
                        -----------------------------------------
Total Dipole Moment    :      2.75548      -0.38944      -0.15829
                        -----------------------------------------
Magnitude (a.u.)       :      2.78736
Magnitude (Debye)      :      7.08491



--------------------
Rotational spectrum 
--------------------
 
Rotational constants in cm-1:     0.027664     0.001987     0.001965 
Rotational constants in MHz :   829.346123    59.576594    58.909381 

 Dipole components along the rotational axes: 
x,y,z [a.u.] :    -2.769110     0.091285    -0.305094 
x,y,z [Debye]:    -7.038518     0.232028    -0.775488 

 

Timings for individual modules:

Sum of individual times         ...       23.801 sec (=   0.397 min)
GTO integral calculation        ...        0.432 sec (=   0.007 min)   1.8 %
SCF iterations                  ...       23.369 sec (=   0.389 min)  98.2 %
                             ****ORCA TERMINATED NORMALLY****
TOTAL RUN TIME: 0 days 0 hours 0 minutes 24 seconds 174 msec
