
                                 *****************
                                 * O   R   C   A *
                                 *****************

                                            #,                                       
                                            ###                                      
                                            ####                                     
                                            #####                                    
                                            ######                                   
                                           ########,                                 
                                     ,,################,,,,,                         
                               ,,#################################,,                 
                          ,,##########################################,,             
                       ,#########################################, ''#####,          
                    ,#############################################,,   '####,        
                  ,##################################################,,,,####,       
                ,###########''''           ''''###############################       
              ,#####''   ,,,,##########,,,,          '''####'''          '####       
            ,##' ,,,,###########################,,,                        '##       
           ' ,,###''''                  '''############,,,                           
         ,,##''                                '''############,,,,        ,,,,,,###''
      ,#''                                            '''#######################'''  
     '                                                          ''''####''''         
             ,#######,   #######,   ,#######,      ##                                
            ,#'     '#,  ##    ##  ,#'     '#,    #''#        ######   ,####,        
            ##       ##  ##   ,#'  ##            #'  '#       #        #'  '#        
            ##       ##  #######   ##           ,######,      #####,   #    #        
            '#,     ,#'  ##    ##  '#,     ,#' ,#      #,         ##   #,  ,#        
             '#######'   ##     ##  '#######'  #'      '#     #####' # '####'        



                  #######################################################
                  #                        -***-                        #
                  #          Department of theory and spectroscopy      #
                  #    Directorship and core code : Frank Neese         #
                  #        Max Planck Institute fuer Kohlenforschung    #
                  #                Kaiser Wilhelm Platz 1               #
                  #                 D-45470 Muelheim/Ruhr               #
                  #                      Germany                        #
                  #                                                     #
                  #                  All rights reserved                #
                  #                        -***-                        #
                  #######################################################


                         Program Version 5.0.3 -  RELEASE  -


 With contributions from (in alphabetic order):
   Daniel Aravena         : Magnetic Suceptibility
   Michael Atanasov       : Ab Initio Ligand Field Theory (pilot matlab implementation)
   Alexander A. Auer      : GIAO ZORA, VPT2 properties, NMR spectrum
   Ute Becker             : Parallelization
   Giovanni Bistoni       : ED, misc. LED, open-shell LED, HFLD
   Martin Brehm           : Molecular dynamics
   Dmytro Bykov           : SCF Hessian
   Vijay G. Chilkuri      : MRCI spin determinant printing, contributions to CSF-ICE
   Dipayan Datta          : RHF DLPNO-CCSD density
   Achintya Kumar Dutta   : EOM-CC, STEOM-CC
   Dmitry Ganyushin       : Spin-Orbit,Spin-Spin,Magnetic field MRCI
   Miquel Garcia          : C-PCM and meta-GGA Hessian, CC/C-PCM, Gaussian charge scheme
   Yang Guo               : DLPNO-NEVPT2, F12-NEVPT2, CIM, IAO-localization
   Andreas Hansen         : Spin unrestricted coupled pair/coupled cluster methods
   Benjamin Helmich-Paris : MC-RPA, TRAH-SCF, COSX integrals
   Lee Huntington         : MR-EOM, pCC
   Robert Izsak           : Overlap fitted RIJCOSX, COSX-SCS-MP3, EOM
   Marcus Kettner         : VPT2
   Christian Kollmar      : KDIIS, OOCD, Brueckner-CCSD(T), CCSD density, CASPT2, CASPT2-K
   Simone Kossmann        : Meta GGA functionals, TD-DFT gradient, OOMP2, MP2 Hessian
   Martin Krupicka        : Initial AUTO-CI
   Lucas Lang             : DCDCAS
   Marvin Lechner         : AUTO-CI (C++ implementation), FIC-MRCC
   Dagmar Lenk            : GEPOL surface, SMD
   Dimitrios Liakos       : Extrapolation schemes; Compound Job, initial MDCI parallelization
   Dimitrios Manganas     : Further ROCIS development; embedding schemes
   Dimitrios Pantazis     : SARC Basis sets
   Anastasios Papadopoulos: AUTO-CI, single reference methods and gradients
   Taras Petrenko         : DFT Hessian,TD-DFT gradient, ASA, ECA, R-Raman, ABS, FL, XAS/XES, NRVS
   Peter Pinski           : DLPNO-MP2, DLPNO-MP2 Gradient
   Christoph Reimann      : Effective Core Potentials
   Marius Retegan         : Local ZFS, SOC
   Christoph Riplinger    : Optimizer, TS searches, QM/MM, DLPNO-CCSD(T), (RO)-DLPNO pert. Triples
   Tobias Risthaus        : Range-separated hybrids, TD-DFT gradient, RPA, STAB
   Michael Roemelt        : Original ROCIS implementation
   Masaaki Saitow         : Open-shell DLPNO-CCSD energy and density
   Barbara Sandhoefer     : DKH picture change effects
   Avijit Sen             : IP-ROCIS
   Kantharuban Sivalingam : CASSCF convergence, NEVPT2, FIC-MRCI
   Bernardo de Souza      : ESD, SOC TD-DFT
   Georgi Stoychev        : AutoAux, RI-MP2 NMR, DLPNO-MP2 response
   Willem Van den Heuvel  : Paramagnetic NMR
   Boris Wezisla          : Elementary symmetry handling
   Frank Wennmohs         : Technical directorship


 We gratefully acknowledge several colleagues who have allowed us to
 interface, adapt or use parts of their codes:
   Stefan Grimme, W. Hujo, H. Kruse, P. Pracht,  : VdW corrections, initial TS optimization,
                  C. Bannwarth, S. Ehlert          DFT functionals, gCP, sTDA/sTD-DF
   Ed Valeev, F. Pavosevic, A. Kumar             : LibInt (2-el integral package), F12 methods
   Garnet Chan, S. Sharma, J. Yang, R. Olivares  : DMRG
   Ulf Ekstrom                                   : XCFun DFT Library
   Mihaly Kallay                                 : mrcc  (arbitrary order and MRCC methods)
   Jiri Pittner, Ondrej Demel                    : Mk-CCSD
   Frank Weinhold                                : gennbo (NPA and NBO analysis)
   Christopher J. Cramer and Donald G. Truhlar   : smd solvation model
   Lars Goerigk                                  : TD-DFT with DH, B97 family of functionals
   V. Asgeirsson, H. Jonsson                     : NEB implementation
   FAccTs GmbH                                   : IRC, NEB, NEB-TS, DLPNO-Multilevel, CI-OPT
                                                   MM, QMMM, 2- and 3-layer-ONIOM, Crystal-QMMM,
                                                   LR-CPCM, SF, NACMEs, symmetry and pop. for TD-DFT,
                                                   nearIR, NL-DFT gradient (VV10), updates on ESD,
                                                   ML-optimized integration grids
   S Lehtola, MJT Oliveira, MAL Marques          : LibXC Library
   Liviu Ungur et al                             : ANISO software


 Your calculation uses the libint2 library for the computation of 2-el integrals
 For citations please refer to: http://libint.valeyev.net

 Your ORCA version has been built with support for libXC version: 5.1.0
 For citations please refer to: https://tddft.org/programs/libxc/

 This ORCA versions uses:
   CBLAS   interface :  Fast vector & matrix operations
   LAPACKE interface :  Fast linear algebra routines
   SCALAPACK package :  Parallel linear algebra routines
   Shared memory     :  Shared parallel matrices
   BLAS/LAPACK       :  OpenBLAS 0.3.15  USE64BITINT DYNAMIC_ARCH NO_AFFINITY Zen SINGLE_THREADED
        Core in use  :  Zen
   Copyright (c) 2011-2014, The OpenBLAS Project


================================================================================

----- Orbital basis set information -----
Your calculation utilizes the basis: def2-SVP
   F. Weigend and R. Ahlrichs, Phys. Chem. Chem. Phys. 7, 3297 (2005).

================================================================================
                                        WARNINGS
                       Please study these warnings very carefully!
================================================================================


INFO   : the flag for use of the SHARK integral package has been found!

================================================================================
                                       INPUT FILE
================================================================================
NAME = ./ZINC000000000104/ZINC000000000104.inp
|  1> !RHF def2-SVP TightSCF PAL16 
|  2> *xyz 0 1
|  3> C -3.678915999267533 -1.202097388875511 -0.7704884426587654
|  4> C -3.497312529366582 0.193266678195744 -0.15145188927349434
|  5> C -4.357341785425278 0.27818517931836323 1.1250508881076022
|  6> C -3.9856579208080585 1.2727241327706258 -1.1313719047562607
|  7> N -2.1028664437937015 0.43414973371430965 0.2749707638792021
|  8> C -1.0840441640640572 0.34143308879424406 -0.7848489069174739
|  9> C 0.28479659577128263 0.842506614793452 -0.27330490407280505
| 10> O 0.10386669783043911 2.155442381540835 0.2799550117531162
| 11> C 0.8955516363618564 -0.09207538427698837 0.7835880737152908
| 12> O 2.2548836850470457 0.25166050971287834 1.0754785475806032
| 13> C 3.2675903936093564 -0.26429033015563985 0.31330643515216167
| 14> C 3.089973989735821 -1.0398189904191708 -0.8377756825985797
| 15> C 4.194649857428236 -1.513892553945142 -1.5534082071009931
| 16> C 5.486906886637157 -1.2183361291331187 -1.1294633490472368
| 17> C 5.67785389039016 -0.44548015141467323 0.01379326068131684
| 18> C 4.574686309704278 0.0335620741066246 0.7366609268947814
| 19> C 4.816122982347068 0.8191146597130644 1.9146204396344524
| 20> N 5.066067696708277 1.4379085613523739 2.8653498240353956
| 21> H -3.3059488604296954 -1.9865215639635954 -0.10182839671566128
| 22> H -3.1539374149121833 -1.2961739241292103 -1.7271851804106675
| 23> H -4.7380677614110125 -1.4100276179085807 -0.9623812454785959
| 24> H -5.418640302879432 0.12354073759809295 0.897909159698323
| 25> H -4.2634073905538585 1.2592377036793272 1.6060383069803112
| 26> H -4.065437104111261 -0.48307158303392317 1.858457704173773
| 27> H -3.4913199324497843 1.2009901653589556 -2.1056587743936954
| 28> H -3.8084712493127846 2.279326306903356 -0.7350996543031291
| 29> H -5.0626837169927725 1.1769441966143523 -1.313125717568405
| 30> H -1.875423163807761 -0.22409203527520521 1.022160345786315
| 31> H -0.9860353404902285 -0.683907645767291 -1.1562572218576834
| 32> H -1.3655344340830846 0.9866046256823716 -1.6229491421190578
| 33> H 0.9683279152638307 0.9560785803956371 -1.1205564765528078
| 34> H -0.7864042829305946 2.1423702283795296 0.6878705181145564
| 35> H 0.8038370402338166 -1.1508518825499274 0.5163342397308741
| 36> H 0.35861170487180366 0.03427854834850908 1.7310281768171287
| 37> H 2.1058272088626624 -1.2911734115931908 -1.2171571060355346
| 38> H 4.043547886756425 -2.114042803870631 -2.4481479189841586
| 39> H 6.34365378809607 -1.5869770252284203 -1.6885619819083613
| 40> H 6.690693631434957 -0.2164942854329193 0.34112084021751526
| 41> *
| 42> 
| 43>                          ****END OF INPUT****
================================================================================

                       ****************************
                       * Single Point Calculation *
                       ****************************

---------------------------------
CARTESIAN COORDINATES (ANGSTROEM)
---------------------------------
  C     -3.678916   -1.202097   -0.770488
  C     -3.497313    0.193267   -0.151452
  C     -4.357342    0.278185    1.125051
  C     -3.985658    1.272724   -1.131372
  N     -2.102866    0.434150    0.274971
  C     -1.084044    0.341433   -0.784849
  C      0.284797    0.842507   -0.273305
  O      0.103867    2.155442    0.279955
  C      0.895552   -0.092075    0.783588
  O      2.254884    0.251661    1.075479
  C      3.267590   -0.264290    0.313306
  C      3.089974   -1.039819   -0.837776
  C      4.194650   -1.513893   -1.553408
  C      5.486907   -1.218336   -1.129463
  C      5.677854   -0.445480    0.013793
  C      4.574686    0.033562    0.736661
  C      4.816123    0.819115    1.914620
  N      5.066068    1.437909    2.865350
  H     -3.305949   -1.986522   -0.101828
  H     -3.153937   -1.296174   -1.727185
  H     -4.738068   -1.410028   -0.962381
  H     -5.418640    0.123541    0.897909
  H     -4.263407    1.259238    1.606038
  H     -4.065437   -0.483072    1.858458
  H     -3.491320    1.200990   -2.105659
  H     -3.808471    2.279326   -0.735100
  H     -5.062684    1.176944   -1.313126
  H     -1.875423   -0.224092    1.022160
  H     -0.986035   -0.683908   -1.156257
  H     -1.365534    0.986605   -1.622949
  H      0.968328    0.956079   -1.120556
  H     -0.786404    2.142370    0.687871
  H      0.803837   -1.150852    0.516334
  H      0.358612    0.034279    1.731028
  H      2.105827   -1.291173   -1.217157
  H      4.043548   -2.114043   -2.448148
  H      6.343654   -1.586977   -1.688562
  H      6.690694   -0.216494    0.341121

----------------------------
CARTESIAN COORDINATES (A.U.)
----------------------------
  NO LB      ZA    FRAG     MASS         X           Y           Z
   0 C     6.0000    0    12.011   -6.952144   -2.271635   -1.456012
   1 C     6.0000    0    12.011   -6.608963    0.365221   -0.286203
   2 C     6.0000    0    12.011   -8.234183    0.525694    2.126038
   3 C     6.0000    0    12.011   -7.531802    2.405100   -2.137983
   4 N     7.0000    0    14.007   -3.973842    0.820424    0.519619
   5 C     6.0000    0    12.011   -2.048547    0.645215   -1.483149
   6 C     6.0000    0    12.011    0.538188    1.592107   -0.516471
   7 O     8.0000    0    15.999    0.196280    4.073196    0.529038
   8 C     6.0000    0    12.011    1.692347   -0.173997    1.480767
   9 O     8.0000    0    15.999    4.261113    0.475569    2.032360
  10 C     6.0000    0    12.011    6.174851   -0.499436    0.592063
  11 C     6.0000    0    12.011    5.839205   -1.964973   -1.583167
  12 C     6.0000    0    12.011    7.926739   -2.860842   -2.935516
  13 C     6.0000    0    12.011   10.368751   -2.302322   -2.134376
  14 C     6.0000    0    12.011   10.729589   -0.841835    0.026065
  15 C     6.0000    0    12.011    8.644904    0.063423    1.392087
  16 C     6.0000    0    12.011    9.101153    1.547902    3.618108
  17 N     7.0000    0    14.007    9.573481    2.717253    5.414726
  18 H     1.0000    0     1.008   -6.247338   -3.753982   -0.192428
  19 H     1.0000    0     1.008   -5.960078   -2.449414   -3.263907
  20 H     1.0000    0     1.008   -8.953650   -2.664566   -1.818637
  21 H     1.0000    0     1.008  -10.239746    0.233458    1.696802
  22 H     1.0000    0     1.008   -8.056672    2.379614    3.034973
  23 H     1.0000    0     1.008   -7.682563   -0.912873    3.511976
  24 H     1.0000    0     1.008   -6.597639    2.269543   -3.979118
  25 H     1.0000    0     1.008   -7.196968    4.307302   -1.389137
  26 H     1.0000    0     1.008   -9.567086    2.224102   -2.481448
  27 H     1.0000    0     1.008   -3.544036   -0.423473    1.931603
  28 H     1.0000    0     1.008   -1.863337   -1.292398   -2.185009
  29 H     1.0000    0     1.008   -2.580486    1.864413   -3.066929
  30 H     1.0000    0     1.008    1.829875    1.806727   -2.117545
  31 H     1.0000    0     1.008   -1.486089    4.048493    1.299887
  32 H     1.0000    0     1.008    1.519032   -2.174795    0.975730
  33 H     1.0000    0     1.008    0.677678    0.064777    3.271169
  34 H     1.0000    0     1.008    3.979437   -2.439964   -2.300094
  35 H     1.0000    0     1.008    7.641198   -3.994962   -4.626329
  36 H     1.0000    0     1.008   11.987768   -2.998952   -3.190920
  37 H     1.0000    0     1.008   12.643579   -0.409115    0.644625

--------------------------------
INTERNAL COORDINATES (ANGSTROEM)
--------------------------------
 C      0   0   0     0.000000000000     0.00000000     0.00000000
 C      1   0   0     1.537279074983     0.00000000     0.00000000
 C      2   1   0     1.541531969753   108.51459388     0.00000000
 C      2   1   3     1.537515155803   110.06577657   241.80410292
 N      2   1   3     1.477951559127   112.06017147   116.91033609
 C      5   2   1     1.473028495490   115.76789225    59.11553263
 C      6   5   2     1.544822634185   110.74434438   170.42383272
 O      7   6   5     1.436186788003   108.20725450   306.82980737
 C      7   6   5     1.537363977427   112.48755932    68.47291554
 O      9   7   6     1.432179469247   111.79427769   169.79287511
 C     10   9   7     1.368461353379   119.89345147   273.18555755
 C     11  10   9     1.399279218605   124.97318297     5.74624614
 C     12  11  10     1.398994076621   120.55614103   179.57781929
 C     13  12  11     1.391765451668   120.35691784   359.92975730
 C     14  13  12     1.393126984961   119.67296241   359.97172892
 C     15  14  13     1.403209830270   120.29089512     0.02521111
 C     16  15  14     1.436305380239   118.49329685   179.58181367
 N     17  16  15     1.161578501569   177.18042535   347.07587581
 H      1   2   3     1.096144164860   111.32894219   296.30138728
 H      1   2   3     1.095318016168   111.90451010   175.39203577
 H      1   2   3     1.096293885403   110.90213517    55.87915432
 H      3   2   1     1.096295038432   111.14664443   299.86509805
 H      3   2   1     1.096647903025   111.38814279   180.06796799
 H      3   2   1     1.096633830890   111.53408532    59.63400875
 H      4   2   1     1.094874747705   112.19373875   304.61666024
 H      4   2   1     1.096209263783   111.28187656   183.49216235
 H      4   2   1     1.096445534575   110.87398686    64.02924663
 H      5   2   1     1.021422999234   108.42834358   295.80825369
 H      6   5   2     1.094930814187   111.40186304   292.78205173
 H      6   5   2     1.094483937009   109.63061167    52.73767774
 H      7   6   5     1.094508512150   109.31099157   191.37245298
 H      8   7   6     0.979361200326   105.23444762    34.65023730
 H      9   7   6     1.095830211400   112.73346290    43.69847946
 H      9   7   6     1.096317725518   109.23712105   285.72588714
 H     12  11  10     1.084275885463   122.10855570     0.11621553
 H     13  12  11     1.087920622126   119.86552218   180.13893597
 H     14  13  12     1.087429374581   120.19396345   180.09016277
 H     15  14  13     1.088770964062   119.39957834   180.03385588

---------------------------
INTERNAL COORDINATES (A.U.)
---------------------------
 C      0   0   0     0.000000000000     0.00000000     0.00000000
 C      1   0   0     2.905036443126     0.00000000     0.00000000
 C      2   1   0     2.913073249518   108.51459388     0.00000000
 C      2   1   3     2.905482571220   110.06577657   241.80410292
 N      2   1   3     2.792923685953   112.06017147   116.91033609
 C      5   2   1     2.783620443939   115.76789225    59.11553263
 C      6   5   2     2.919291704092   110.74434438   170.42383272
 O      7   6   5     2.713999706481   108.20725450   306.82980737
 C      7   6   5     2.905196885493   112.48755932    68.47291554
 O      9   7   6     2.706426971502   111.79427769   169.79287511
 C     10   9   7     2.586017182741   119.89345147   273.18555755
 C     11  10   9     2.644254508051   124.97318297     5.74624614
 C     12  11  10     2.643715667793   120.55614103   179.57781929
 C     13  12  11     2.630055546306   120.35691784   359.92975730
 C     14  13  12     2.632628471351   119.67296241   359.97172892
 C     15  14  13     2.651682287636   120.29089512     0.02521111
 C     16  15  14     2.714223813329   118.49329685   179.58181367
 N     17  16  15     2.195065251015   177.18042535   347.07587581
 H      1   2   3     2.071412274881   111.32894219   296.30138728
 H      1   2   3     2.069851080107   111.90451010   175.39203577
 H      1   2   3     2.071695205704   110.90213517    55.87915432
 H      3   2   1     2.071697384613   111.14664443   299.86509805
 H      3   2   1     2.072364202056   111.38814279   180.06796799
 H      3   2   1     2.072337609575   111.53408532    59.63400875
 H      4   2   1     2.069013424109   112.19373875   304.61666024
 H      4   2   1     2.071535294017   111.28187656   183.49216235
 H      4   2   1     2.071981781107   110.87398686    64.02924663
 H      5   2   1     1.930209735440   108.42834358   295.80825369
 H      6   5   2     2.069119374405   111.40186304   292.78205173
 H      6   5   2     2.068274898923   109.63061167    52.73767774
 H      7   6   5     2.068321339208   109.31099157   191.37245298
 H      8   7   6     1.850724454804   105.23444762    34.65023730
 H      9   7   6     2.070818988823   112.73346290    43.69847946
 H      9   7   6     2.071740256992   109.23712105   285.72588714
 H     12  11  10     2.048984477139   122.10855570     0.11621553
 H     13  12  11     2.055872031264   119.86552218   180.13893597
 H     14  13  12     2.054943707938   120.19396345   180.09016277
 H     15  14  13     2.057478944642   119.39957834   180.03385588

---------------------
BASIS SET INFORMATION
---------------------
There are 4 groups of distinct atoms

 Group   1 Type C   : 7s4p1d contracted to 3s2p1d pattern {511/31/1}
 Group   2 Type N   : 7s4p1d contracted to 3s2p1d pattern {511/31/1}
 Group   3 Type O   : 7s4p1d contracted to 3s2p1d pattern {511/31/1}
 Group   4 Type H   : 4s1p contracted to 2s1p pattern {31/1}

Atom   0C    basis set group =>   1
Atom   1C    basis set group =>   1
Atom   2C    basis set group =>   1
Atom   3C    basis set group =>   1
Atom   4N    basis set group =>   2
Atom   5C    basis set group =>   1
Atom   6C    basis set group =>   1
Atom   7O    basis set group =>   3
Atom   8C    basis set group =>   1
Atom   9O    basis set group =>   3
Atom  10C    basis set group =>   1
Atom  11C    basis set group =>   1
Atom  12C    basis set group =>   1
Atom  13C    basis set group =>   1
Atom  14C    basis set group =>   1
Atom  15C    basis set group =>   1
Atom  16C    basis set group =>   1
Atom  17N    basis set group =>   2
Atom  18H    basis set group =>   4
Atom  19H    basis set group =>   4
Atom  20H    basis set group =>   4
Atom  21H    basis set group =>   4
Atom  22H    basis set group =>   4
Atom  23H    basis set group =>   4
Atom  24H    basis set group =>   4
Atom  25H    basis set group =>   4
Atom  26H    basis set group =>   4
Atom  27H    basis set group =>   4
Atom  28H    basis set group =>   4
Atom  29H    basis set group =>   4
Atom  30H    basis set group =>   4
Atom  31H    basis set group =>   4
Atom  32H    basis set group =>   4
Atom  33H    basis set group =>   4
Atom  34H    basis set group =>   4
Atom  35H    basis set group =>   4
Atom  36H    basis set group =>   4
Atom  37H    basis set group =>   4


           ************************************************************
           *        Program running with 16 parallel MPI-processes    *
           *              working on a common directory               *
           ************************************************************
------------------------------------------------------------------------------
                           ORCA GTO INTEGRAL CALCULATION
------------------------------------------------------------------------------
------------------------------------------------------------------------------
                   ___                                                        
                  /   \      - P O W E R E D   B Y -                         
                 /     \                                                     
                 |  |  |   _    _      __       _____    __    __             
                 |  |  |  | |  | |    /  \     |  _  \  |  |  /  |          
                  \  \/   | |  | |   /    \    | | | |  |  | /  /          
                 / \  \   | |__| |  /  /\  \   | |_| |  |  |/  /          
                |  |  |   |  __  | /  /__\  \  |    /   |      \           
                |  |  |   | |  | | |   __   |  |    \   |  |\   \          
                \     /   | |  | | |  |  |  |  | |\  \  |  | \   \       
                 \___/    |_|  |_| |__|  |__|  |_| \__\ |__|  \__/        
                                                                              
                      - O R C A' S   B I G   F R I E N D -                    
                                      &                                       
                       - I N T E G R A L  F E E D E R -                       
                                                                              
 v1 FN, 2020, v2 2021                                                         
------------------------------------------------------------------------------


Reading SHARK input file ./ZINC000000000104/ZINC000000000104.SHARKINP.tmp ... ok
----------------------
SHARK INTEGRAL PACKAGE
----------------------

Number of atoms                             ...     38
Number of basis functions                   ...    352
Number of shells                            ...    168
Maximum angular momentum                    ...      2
Integral batch strategy                     ... SHARK/LIBINT Hybrid
RI-J (if used) integral strategy            ... SPLIT-RIJ (Revised 2003 algorithm where possible)
Printlevel                                  ...      1
Contraction scheme used                     ... SEGMENTED contraction
Coulomb Range Separation                    ... NOT USED
Exchange Range Separation                   ... NOT USED
Finite Nucleus Model                        ... NOT USED
Auxiliary Coulomb fitting basis             ... NOT available
Auxiliary J/K fitting basis                 ... NOT available
Auxiliary Correlation fitting basis         ... NOT available
Auxiliary 'external' fitting basis          ... NOT available
Integral threshold                          ...     2.500000e-11
Primitive cut-off                           ...     2.500000e-12
Primitive pair pre-selection threshold      ...     2.500000e-12

Calculating pre-screening integrals         ... done (  0.0 sec) Dimension = 168
Organizing shell pair data                  ... done (  0.0 sec)
Shell pair information
Total number of shell pairs                 ...     14196
Shell pairs after pre-screening             ...     10087
Total number of primitive shell pairs       ...     50380
Primitive shell pairs kept                  ...     23643
          la=0 lb=0:   3302 shell pairs
          la=1 lb=0:   3821 shell pairs
          la=1 lb=1:   1136 shell pairs
          la=2 lb=0:   1098 shell pairs
          la=2 lb=1:    634 shell pairs
          la=2 lb=2:     96 shell pairs

Calculating one electron integrals          ... done (  0.0 sec)
Calculating Nuclear repulsion               ... done (  0.0 sec) ENN=   1274.163279678767 Eh

SHARK setup successfully completed in   0.2 seconds

Maximum memory used throughout the entire GTOINT-calculation: 15.7 MB


           ************************************************************
           *        Program running with 16 parallel MPI-processes    *
           *              working on a common directory               *
           ************************************************************
-------------------------------------------------------------------------------
                                 ORCA SCF
-------------------------------------------------------------------------------

------------
SCF SETTINGS
------------
Hamiltonian:
 Ab initio Hamiltonian  Method          .... Hartree-Fock(GTOs)


General Settings:
 Integral files         IntName         .... ./ZINC000000000104/ZINC000000000104
 Hartree-Fock type      HFTyp           .... RHF
 Total Charge           Charge          ....    0
 Multiplicity           Mult            ....    1
 Number of Electrons    NEL             ....  134
 Basis Dimension        Dim             ....  352
 Nuclear Repulsion      ENuc            ....   1274.1632796788 Eh

Convergence Acceleration:
 DIIS                   CNVDIIS         .... on
   Start iteration      DIISMaxIt       ....    12
   Startup error        DIISStart       ....  0.200000
   # of expansion vecs  DIISMaxEq       ....     5
   Bias factor          DIISBfac        ....   1.050
   Max. coefficient     DIISMaxC        ....  10.000
 Trust-Rad. Augm. Hess. CNVTRAH         .... auto
   Auto Start mean grad. ratio tolernc. ....  1.125000
   Auto Start start iteration           ....    20
   Auto Start num. interpolation iter.  ....    10
   Max. Number of Micro iterations      ....    16
   Max. Number of Macro iterations      .... Maxiter - #DIIS iter
   Number of Davidson start vectors     ....     2
   Converg. threshold I  (grad. norm)   ....   1.000e-05
   Converg. threshold II (energy diff.) ....   1.000e-08
   Grad. Scal. Fac. for Micro threshold ....   0.100
   Minimum threshold for Micro iter.    ....   0.010
   NR start threshold (gradient norm)   ....   0.001
   Initial trust radius                 ....   0.400
   Minimum AH scaling param. (alpha)    ....   1.000
   Maximum AH scaling param. (alpha)    .... 1000.000
   Orbital update algorithm             .... Taylor
   White noise on init. David. guess    .... on
   Maximum white noise                  ....   0.010
   Quad. conv. algorithm                .... NR
 SOSCF                  CNVSOSCF        .... on
   Start iteration      SOSCFMaxIt      ....   150
   Startup grad/error   SOSCFStart      ....  0.003300
 Level Shifting         CNVShift        .... on
   Level shift para.    LevelShift      ....    0.2500
   Turn off err/grad.   ShiftErr        ....    0.0010
 Zerner damping         CNVZerner       .... off
 Static damping         CNVDamp         .... on
   Fraction old density DampFac         ....    0.7000
   Max. Damping (<1)    DampMax         ....    0.9800
   Min. Damping (>=0)   DampMin         ....    0.0000
   Turn off err/grad.   DampErr         ....    0.1000
 Fernandez-Rico         CNVRico         .... off

SCF Procedure:
 Maximum # iterations   MaxIter         ....   125
 SCF integral mode      SCFMode         .... Direct
   Integral package                     .... SHARK and LIBINT hybrid scheme
 Reset frequency        DirectResetFreq ....    20
 Integral Threshold     Thresh          ....  2.500e-11 Eh
 Primitive CutOff       TCut            ....  2.500e-12 Eh

Convergence Tolerance:
 Convergence Check Mode ConvCheckMode   .... Total+1el-Energy
 Convergence forced     ConvForced      .... 0
 Energy Change          TolE            ....  1.000e-08 Eh
 1-El. energy change                    ....  1.000e-05 Eh
 Orbital Gradient       TolG            ....  1.000e-05
 Orbital Rotation angle TolX            ....  1.000e-05
 DIIS Error             TolErr          ....  5.000e-07


Diagonalization of the overlap matrix:
Smallest eigenvalue                        ... 2.388e-04
Time for diagonalization                   ...    0.015 sec
Threshold for overlap eigenvalues          ... 1.000e-08
Number of eigenvalues below threshold      ... 0
Time for construction of square roots      ...    0.008 sec
Total time needed                          ...    0.023 sec

Time for model grid setup =    0.145 sec

------------------------------
INITIAL GUESS: MODEL POTENTIAL
------------------------------
Loading Hartree-Fock densities                     ... done
Calculating cut-offs                               ... done
Initializing the effective Hamiltonian             ... done
Setting up the integral package (SHARK)            ... done
Starting the Coulomb interaction                   ... done (   0.0 sec)
Reading the grid                                   ... done
Mapping shells                                     ... done
Starting the XC term evaluation                    ... done (   0.0 sec)
Transforming the Hamiltonian                       ... done (   0.0 sec)
Diagonalizing the Hamiltonian                      ... done (   0.0 sec)
Back transforming the eigenvectors                 ... done (   0.0 sec)
Now organizing SCF variables                       ... done
                      ------------------
                      INITIAL GUESS DONE (   0.3 sec)
                      ------------------
--------------
SCF ITERATIONS
--------------
ITER       Energy         Delta-E        Max-DP      RMS-DP      [F,P]     Damp
               ***  Starting incremental Fock matrix formation  ***
  0   -799.1192586577   0.000000000000 0.06781808  0.00180017  0.2273292 0.7000
  1   -799.3538157750  -0.234557117314 0.04959964  0.00139912  0.1378061 0.7000
                               ***Turning on DIIS***
  2   -799.4960776360  -0.142261860987 0.12522583  0.00322417  0.0778171 0.0000
  3   -798.6498297643   0.846247871712 0.04615871  0.00072614  0.0431467 0.0000
  4   -799.8333069795  -1.183477215201 0.01801629  0.00026943  0.0138075 0.0000
  5   -799.8137326752   0.019574304293 0.00668495  0.00011000  0.0067359 0.0000
                      *** Initiating the SOSCF procedure ***
                           *** Shutting down DIIS ***
                      *** Re-Reading the Fockian *** 
                      *** Removing any level shift *** 
ITER      Energy       Delta-E        Grad      Rot      Max-DP    RMS-DP
  6   -799.79069141   0.0230412612  0.000688  0.000688  0.003146  0.000049
               *** Restarting incremental Fock matrix formation ***
  7   -799.79335713  -0.0026657197  0.000362  0.000831  0.001041  0.000020
  8   -799.79336573  -0.0000085928  0.000136  0.000679  0.000715  0.000018
  9   -799.79336790  -0.0000021686  0.000090  0.000095  0.000299  0.000004
 10   -799.79336828  -0.0000003809  0.000036  0.000086  0.000104  0.000002
 11   -799.79336833  -0.0000000516  0.000030  0.000070  0.000029  0.000001
 12   -799.79336835  -0.0000000226  0.000008  0.000048  0.000020  0.000000
 13   -799.79336835  -0.0000000032  0.000003  0.000013  0.000007  0.000000
                  ***Gradient check signals convergence***
              ***Rediagonalizing the Fockian in SOSCF/NRSCF***

               *****************************************************
               *                     SUCCESS                       *
               *           SCF CONVERGED AFTER  14 CYCLES          *
               *****************************************************


----------------
TOTAL SCF ENERGY
----------------

Total Energy       :         -799.79336835 Eh          -21763.48399 eV

Components:
Nuclear Repulsion  :         1274.16327968 Eh           34671.74552 eV
Electronic Energy  :        -2073.95664803 Eh          -56435.22950 eV
One Electron Energy:        -3617.89331699 Eh          -98447.88215 eV
Two Electron Energy:         1543.93666896 Eh           42012.65264 eV

Virial components:
Potential Energy   :        -1595.46939843 Eh          -43414.92950 eV
Kinetic Energy     :          795.67603008 Eh           21651.44552 eV
Virial Ratio       :            2.00517464


---------------
SCF CONVERGENCE
---------------

  Last Energy change         ...    1.1164e-09  Tolerance :   1.0000e-08
  Last MAX-Density change    ...    4.3788e-06  Tolerance :   1.0000e-07
  Last RMS-Density change    ...    7.8216e-08  Tolerance :   5.0000e-09
  Last Orbital Gradient      ...    1.0620e-06  Tolerance :   1.0000e-05
  Last Orbital Rotation      ...    2.9998e-06  Tolerance :   1.0000e-05

             **** THE GBW FILE WAS UPDATED (./ZINC000000000104/ZINC000000000104.gbw) ****
             **** DENSITY ./ZINC000000000104/ZINC000000000104.scfp WAS UPDATED ****
             **** ENERGY FILE WAS UPDATED (./ZINC000000000104/ZINC000000000104.en.tmp) ****
             **** THE GBW FILE WAS UPDATED (./ZINC000000000104/ZINC000000000104.gbw) ****
             **** DENSITY ./ZINC000000000104/ZINC000000000104.scfp WAS UPDATED ****
----------------
ORBITAL ENERGIES
----------------

  NO   OCC          E(Eh)            E(eV) 
   0   2.0000     -20.595647      -560.4361 
   1   2.0000     -20.537474      -558.8531 
   2   2.0000     -15.565904      -423.5698 
   3   2.0000     -15.561262      -423.4435 
   4   2.0000     -11.339820      -308.5722 
   5   2.0000     -11.305574      -307.6403 
   6   2.0000     -11.293177      -307.3030 
   7   2.0000     -11.281273      -306.9791 
   8   2.0000     -11.279975      -306.9437 
   9   2.0000     -11.275643      -306.8259 
  10   2.0000     -11.272943      -306.7524 
  11   2.0000     -11.272775      -306.7478 
  12   2.0000     -11.271666      -306.7176 
  13   2.0000     -11.260125      -306.4036 
  14   2.0000     -11.252891      -306.2067 
  15   2.0000     -11.234499      -305.7063 
  16   2.0000     -11.232435      -305.6501 
  17   2.0000     -11.231922      -305.6361 
  18   2.0000      -1.408545       -38.3285 
  19   2.0000      -1.329477       -36.1769 
  20   2.0000      -1.218206       -33.1491 
  21   2.0000      -1.196175       -32.5496 
  22   2.0000      -1.163575       -31.6625 
  23   2.0000      -1.070427       -29.1278 
  24   2.0000      -1.052920       -28.6514 
  25   2.0000      -1.035163       -28.1682 
  26   2.0000      -1.001044       -27.2398 
  27   2.0000      -0.943775       -25.6814 
  28   2.0000      -0.939803       -25.5733 
  29   2.0000      -0.921678       -25.0801 
  30   2.0000      -0.879660       -23.9368 
  31   2.0000      -0.842661       -22.9300 
  32   2.0000      -0.813295       -22.1309 
  33   2.0000      -0.766444       -20.8560 
  34   2.0000      -0.761079       -20.7100 
  35   2.0000      -0.719791       -19.5865 
  36   2.0000      -0.697369       -18.9764 
  37   2.0000      -0.673897       -18.3377 
  38   2.0000      -0.671345       -18.2682 
  39   2.0000      -0.664568       -18.0838 
  40   2.0000      -0.655017       -17.8239 
  41   2.0000      -0.646002       -17.5786 
  42   2.0000      -0.635352       -17.2888 
  43   2.0000      -0.618013       -16.8170 
  44   2.0000      -0.612499       -16.6669 
  45   2.0000      -0.602296       -16.3893 
  46   2.0000      -0.588611       -16.0169 
  47   2.0000      -0.574967       -15.6456 
  48   2.0000      -0.563000       -15.3200 
  49   2.0000      -0.556822       -15.1519 
  50   2.0000      -0.546572       -14.8730 
  51   2.0000      -0.541286       -14.7291 
  52   2.0000      -0.540059       -14.6957 
  53   2.0000      -0.531787       -14.4707 
  54   2.0000      -0.527700       -14.3594 
  55   2.0000      -0.520338       -14.1591 
  56   2.0000      -0.509832       -13.8732 
  57   2.0000      -0.502140       -13.6639 
  58   2.0000      -0.495396       -13.4804 
  59   2.0000      -0.482088       -13.1183 
  60   2.0000      -0.472929       -12.8690 
  61   2.0000      -0.470861       -12.8128 
  62   2.0000      -0.453589       -12.3428 
  63   2.0000      -0.438405       -11.9296 
  64   2.0000      -0.392945       -10.6926 
  65   2.0000      -0.360280        -9.8037 
  66   2.0000      -0.335325        -9.1246 
  67   0.0000       0.079693         2.1686 
  68   0.0000       0.122499         3.3334 
  69   0.0000       0.144567         3.9339 
  70   0.0000       0.163003         4.4355 
  71   0.0000       0.182170         4.9571 
  72   0.0000       0.185031         5.0350 
  73   0.0000       0.208962         5.6861 
  74   0.0000       0.212037         5.7698 
  75   0.0000       0.215384         5.8609 
  76   0.0000       0.216212         5.8834 
  77   0.0000       0.221168         6.0183 
  78   0.0000       0.228199         6.2096 
  79   0.0000       0.232950         6.3389 
  80   0.0000       0.239789         6.5250 
  81   0.0000       0.246240         6.7005 
  82   0.0000       0.256891         6.9904 
  83   0.0000       0.261157         7.1064 
  84   0.0000       0.267759         7.2861 
  85   0.0000       0.275320         7.4918 
  86   0.0000       0.286073         7.7844 
  87   0.0000       0.290514         7.9053 
  88   0.0000       0.301563         8.2060 
  89   0.0000       0.308272         8.3885 
  90   0.0000       0.322379         8.7724 
  91   0.0000       0.331245         9.0136 
  92   0.0000       0.335073         9.1178 
  93   0.0000       0.358843         9.7646 
  94   0.0000       0.361930         9.8486 
  95   0.0000       0.371712        10.1148 
  96   0.0000       0.381432        10.3793 
  97   0.0000       0.395725        10.7682 
  98   0.0000       0.397573        10.8185 
  99   0.0000       0.410234        11.1630 
 100   0.0000       0.412139        11.2149 
 101   0.0000       0.420555        11.4439 
 102   0.0000       0.426393        11.6028 
 103   0.0000       0.443180        12.0595 
 104   0.0000       0.453993        12.3538 
 105   0.0000       0.474048        12.8995 
 106   0.0000       0.500240        13.6122 
 107   0.0000       0.515342        14.0232 
 108   0.0000       0.539343        14.6763 
 109   0.0000       0.556434        15.1413 
 110   0.0000       0.566342        15.4109 
 111   0.0000       0.573446        15.6042 
 112   0.0000       0.599104        16.3024 
 113   0.0000       0.607794        16.5389 
 114   0.0000       0.637070        17.3355 
 115   0.0000       0.643647        17.5145 
 116   0.0000       0.646813        17.6007 
 117   0.0000       0.655434        17.8353 
 118   0.0000       0.670763        18.2524 
 119   0.0000       0.678734        18.4693 
 120   0.0000       0.682850        18.5813 
 121   0.0000       0.695468        18.9246 
 122   0.0000       0.706105        19.2141 
 123   0.0000       0.710541        19.3348 
 124   0.0000       0.721211        19.6252 
 125   0.0000       0.722888        19.6708 
 126   0.0000       0.748157        20.3584 
 127   0.0000       0.757682        20.6176 
 128   0.0000       0.766919        20.8689 
 129   0.0000       0.778167        21.1750 
 130   0.0000       0.792919        21.5764 
 131   0.0000       0.802359        21.8333 
 132   0.0000       0.806755        21.9529 
 133   0.0000       0.810592        22.0573 
 134   0.0000       0.818152        22.2631 
 135   0.0000       0.837193        22.7812 
 136   0.0000       0.840219        22.8635 
 137   0.0000       0.842793        22.9336 
 138   0.0000       0.845879        23.0175 
 139   0.0000       0.850716        23.1492 
 140   0.0000       0.856935        23.3184 
 141   0.0000       0.865267        23.5451 
 142   0.0000       0.868178        23.6243 
 143   0.0000       0.870376        23.6841 
 144   0.0000       0.875318        23.8186 
 145   0.0000       0.886536        24.1239 
 146   0.0000       0.887757        24.1571 
 147   0.0000       0.892007        24.2727 
 148   0.0000       0.899036        24.4640 
 149   0.0000       0.900865        24.5138 
 150   0.0000       0.903568        24.5873 
 151   0.0000       0.906915        24.6784 
 152   0.0000       0.913368        24.8540 
 153   0.0000       0.914876        24.8950 
 154   0.0000       0.922239        25.0954 
 155   0.0000       0.923747        25.1364 
 156   0.0000       0.931756        25.3544 
 157   0.0000       0.937628        25.5142 
 158   0.0000       0.948020        25.7969 
 159   0.0000       0.952333        25.9143 
 160   0.0000       0.961829        26.1727 
 161   0.0000       0.965600        26.2753 
 162   0.0000       0.973870        26.5003 
 163   0.0000       0.980456        26.6796 
 164   0.0000       0.990626        26.9563 
 165   0.0000       0.998557        27.1721 
 166   0.0000       1.004880        27.3442 
 167   0.0000       1.015698        27.6386 
 168   0.0000       1.020596        27.7718 
 169   0.0000       1.025855        27.9149 
 170   0.0000       1.063830        28.9483 
 171   0.0000       1.073370        29.2079 
 172   0.0000       1.105731        30.0885 
 173   0.0000       1.133181        30.8354 
 174   0.0000       1.133906        30.8551 
 175   0.0000       1.145168        31.1616 
 176   0.0000       1.160015        31.5656 
 177   0.0000       1.169081        31.8123 
 178   0.0000       1.173677        31.9374 
 179   0.0000       1.190614        32.3982 
 180   0.0000       1.215115        33.0650 
 181   0.0000       1.225623        33.3509 
 182   0.0000       1.268382        34.5144 
 183   0.0000       1.275855        34.7178 
 184   0.0000       1.283981        34.9389 
 185   0.0000       1.325506        36.0688 
 186   0.0000       1.351166        36.7671 
 187   0.0000       1.357873        36.9496 
 188   0.0000       1.368225        37.2313 
 189   0.0000       1.384917        37.6855 
 190   0.0000       1.386285        37.7227 
 191   0.0000       1.397751        38.0347 
 192   0.0000       1.405295        38.2400 
 193   0.0000       1.416536        38.5459 
 194   0.0000       1.439323        39.1660 
 195   0.0000       1.444620        39.3101 
 196   0.0000       1.477550        40.2062 
 197   0.0000       1.486307        40.4445 
 198   0.0000       1.494354        40.6634 
 199   0.0000       1.500055        40.8186 
 200   0.0000       1.511906        41.1410 
 201   0.0000       1.527933        41.5772 
 202   0.0000       1.546191        42.0740 
 203   0.0000       1.557909        42.3929 
 204   0.0000       1.576807        42.9071 
 205   0.0000       1.582710        43.0677 
 206   0.0000       1.602866        43.6162 
 207   0.0000       1.606591        43.7176 
 208   0.0000       1.631378        44.3920 
 209   0.0000       1.653900        45.0049 
 210   0.0000       1.720709        46.8229 
 211   0.0000       1.722806        46.8799 
 212   0.0000       1.729690        47.0673 
 213   0.0000       1.753391        47.7122 
 214   0.0000       1.789843        48.7041 
 215   0.0000       1.805560        49.1318 
 216   0.0000       1.812210        49.3128 
 217   0.0000       1.815362        49.3985 
 218   0.0000       1.825377        49.6710 
 219   0.0000       1.837924        50.0125 
 220   0.0000       1.869726        50.8778 
 221   0.0000       1.883464        51.2517 
 222   0.0000       1.889791        51.4238 
 223   0.0000       1.901759        51.7495 
 224   0.0000       1.902504        51.7698 
 225   0.0000       1.942883        52.8685 
 226   0.0000       1.950148        53.0662 
 227   0.0000       1.955672        53.2165 
 228   0.0000       1.966680        53.5161 
 229   0.0000       1.978392        53.8348 
 230   0.0000       1.990644        54.1682 
 231   0.0000       2.004169        54.5362 
 232   0.0000       2.006664        54.6041 
 233   0.0000       2.019689        54.9585 
 234   0.0000       2.023710        55.0680 
 235   0.0000       2.035201        55.3806 
 236   0.0000       2.039356        55.4937 
 237   0.0000       2.044616        55.6368 
 238   0.0000       2.056383        55.9570 
 239   0.0000       2.061281        56.0903 
 240   0.0000       2.075510        56.4775 
 241   0.0000       2.079374        56.5826 
 242   0.0000       2.085788        56.7572 
 243   0.0000       2.094297        56.9887 
 244   0.0000       2.105036        57.2810 
 245   0.0000       2.111597        57.4595 
 246   0.0000       2.118572        57.6493 
 247   0.0000       2.122976        57.7691 
 248   0.0000       2.128460        57.9183 
 249   0.0000       2.147385        58.4333 
 250   0.0000       2.154165        58.6178 
 251   0.0000       2.156592        58.6838 
 252   0.0000       2.168036        58.9953 
 253   0.0000       2.172405        59.1142 
 254   0.0000       2.181895        59.3724 
 255   0.0000       2.208094        60.0853 
 256   0.0000       2.211206        60.1700 
 257   0.0000       2.215437        60.2851 
 258   0.0000       2.217313        60.3362 
 259   0.0000       2.225890        60.5695 
 260   0.0000       2.229693        60.6730 
 261   0.0000       2.242659        61.0259 
 262   0.0000       2.257445        61.4282 
 263   0.0000       2.265335        61.6429 
 264   0.0000       2.271501        61.8107 
 265   0.0000       2.281783        62.0905 
 266   0.0000       2.290838        62.3369 
 267   0.0000       2.299606        62.5755 
 268   0.0000       2.331444        63.4418 
 269   0.0000       2.340460        63.6872 
 270   0.0000       2.361514        64.2601 
 271   0.0000       2.374826        64.6223 
 272   0.0000       2.392001        65.0896 
 273   0.0000       2.400040        65.3084 
 274   0.0000       2.432316        66.1867 
 275   0.0000       2.452288        66.7301 
 276   0.0000       2.464280        67.0565 
 277   0.0000       2.477719        67.4222 
 278   0.0000       2.484685        67.6117 
 279   0.0000       2.493495        67.8514 
 280   0.0000       2.503532        68.1246 
 281   0.0000       2.514224        68.4155 
 282   0.0000       2.551307        69.4246 
 283   0.0000       2.567183        69.8566 
 284   0.0000       2.569650        69.9237 
 285   0.0000       2.582940        70.2854 
 286   0.0000       2.591820        70.5270 
 287   0.0000       2.606107        70.9158 
 288   0.0000       2.611381        71.0593 
 289   0.0000       2.619349        71.2761 
 290   0.0000       2.634292        71.6827 
 291   0.0000       2.642567        71.9079 
 292   0.0000       2.660307        72.3906 
 293   0.0000       2.677289        72.8527 
 294   0.0000       2.690728        73.2184 
 295   0.0000       2.722537        74.0840 
 296   0.0000       2.727987        74.2323 
 297   0.0000       2.728723        74.2523 
 298   0.0000       2.742823        74.6360 
 299   0.0000       2.763228        75.1913 
 300   0.0000       2.791812        75.9691 
 301   0.0000       2.800277        76.1994 
 302   0.0000       2.824658        76.8628 
 303   0.0000       2.837664        77.2167 
 304   0.0000       2.851088        77.5820 
 305   0.0000       2.914033        79.2949 
 306   0.0000       2.925382        79.6037 
 307   0.0000       2.938400        79.9579 
 308   0.0000       2.947424        80.2035 
 309   0.0000       2.958294        80.4993 
 310   0.0000       2.965336        80.6909 
 311   0.0000       3.009542        81.8938 
 312   0.0000       3.015603        82.0587 
 313   0.0000       3.032508        82.5187 
 314   0.0000       3.056650        83.1757 
 315   0.0000       3.064494        83.3891 
 316   0.0000       3.108113        84.5761 
 317   0.0000       3.118675        84.8635 
 318   0.0000       3.147053        85.6357 
 319   0.0000       3.160225        85.9941 
 320   0.0000       3.166896        86.1756 
 321   0.0000       3.203616        87.1748 
 322   0.0000       3.215697        87.5036 
 323   0.0000       3.229966        87.8918 
 324   0.0000       3.239970        88.1641 
 325   0.0000       3.248626        88.3996 
 326   0.0000       3.286222        89.4227 
 327   0.0000       3.292058        89.5815 
 328   0.0000       3.297301        89.7241 
 329   0.0000       3.300818        89.8198 
 330   0.0000       3.315924        90.2309 
 331   0.0000       3.343529        90.9821 
 332   0.0000       3.354599        91.2833 
 333   0.0000       3.359373        91.4132 
 334   0.0000       3.387187        92.1700 
 335   0.0000       3.399488        92.5048 
 336   0.0000       3.411651        92.8357 
 337   0.0000       3.421525        93.1044 
 338   0.0000       3.427692        93.2722 
 339   0.0000       3.463685        94.2517 
 340   0.0000       3.466643        94.3322 
 341   0.0000       3.511513        95.5531 
 342   0.0000       3.536319        96.2281 
 343   0.0000       3.581851        97.4671 
 344   0.0000       3.631297        98.8126 
 345   0.0000       3.742792       101.8466 
 346   0.0000       3.781137       102.8900 
 347   0.0000       3.798609       103.3654 
 348   0.0000       3.894279       105.9687 
 349   0.0000       3.904014       106.2336 
 350   0.0000       4.119070       112.0856 
 351   0.0000       4.195927       114.1770 

                    ********************************
                    * MULLIKEN POPULATION ANALYSIS *
                    ********************************

-----------------------
MULLIKEN ATOMIC CHARGES
-----------------------
   0 C :    0.046285
   1 C :   -0.254748
   2 C :    0.052851
   3 C :    0.049972
   4 N :   -0.503854
   5 C :    0.149333
   6 C :    0.176323
   7 O :   -0.476566
   8 C :    0.309242
   9 O :   -0.558332
  10 C :    0.440906
  11 C :   -0.174500
  12 C :    0.031313
  13 C :   -0.079195
  14 C :    0.076797
  15 C :   -0.297527
  16 C :    0.090936
  17 N :   -0.105275
  18 H :    0.021134
  19 H :    0.032667
  20 H :    0.033073
  21 H :    0.030815
  22 H :    0.042387
  23 H :    0.021915
  24 H :    0.029807
  25 H :    0.044267
  26 H :    0.033112
  27 H :    0.133055
  28 H :    0.015421
  29 H :    0.053662
  30 H :    0.040384
  31 H :    0.209373
  32 H :    0.028861
  33 H :    0.046758
  34 H :    0.043120
  35 H :    0.054383
  36 H :    0.050429
  37 H :    0.061416
Sum of atomic charges:   -0.0000000

--------------------------------
MULLIKEN REDUCED ORBITAL CHARGES
--------------------------------
  0 C s       :     3.021095  s :     3.021095
      pz      :     0.980320  p :     2.896316
      px      :     0.999778
      py      :     0.916219
      dz2     :     0.006391  d :     0.036304
      dxz     :     0.006368
      dyz     :     0.009229
      dx2y2   :     0.010690
      dxy     :     0.003626
  1 C s       :     3.267445  s :     3.267445
      pz      :     1.052105  p :     2.909379
      px      :     0.843307
      py      :     1.013967
      dz2     :     0.011602  d :     0.077924
      dxz     :     0.016444
      dyz     :     0.016094
      dx2y2   :     0.021490
      dxy     :     0.012294
  2 C s       :     3.025636  s :     3.025636
      pz      :     0.921255  p :     2.885097
      px      :     0.956464
      py      :     1.007377
      dz2     :     0.005404  d :     0.036417
      dxz     :     0.007573
      dyz     :     0.010736
      dx2y2   :     0.010744
      dxy     :     0.001960
  3 C s       :     3.022282  s :     3.022282
      pz      :     0.959061  p :     2.891539
      px      :     0.978365
      py      :     0.954113
      dz2     :     0.007965  d :     0.036208
      dxz     :     0.006230
      dyz     :     0.008134
      dx2y2   :     0.011202
      dxy     :     0.002677
  4 N s       :     3.548443  s :     3.548443
      pz      :     1.197772  p :     3.929127
      px      :     1.113907
      py      :     1.617449
      dz2     :     0.002869  d :     0.026285
      dxz     :     0.008419
      dyz     :     0.005671
      dx2y2   :     0.005556
      dxy     :     0.003769
  5 C s       :     3.010080  s :     3.010080
      pz      :     0.906691  p :     2.781772
      px      :     0.874260
      py      :     1.000822
      dz2     :     0.007452  d :     0.058814
      dxz     :     0.016735
      dyz     :     0.013154
      dx2y2   :     0.014070
      dxy     :     0.007403
  6 C s       :     3.084186  s :     3.084186
      pz      :     0.960999  p :     2.659632
      px      :     0.965416
      py      :     0.733217
      dz2     :     0.010242  d :     0.079860
      dxz     :     0.014505
      dyz     :     0.021155
      dx2y2   :     0.019139
      dxy     :     0.014818
  7 O s       :     3.772621  s :     3.772621
      pz      :     1.738602  p :     4.689877
      px      :     1.465868
      py      :     1.485408
      dz2     :     0.001403  d :     0.014068
      dxz     :     0.001971
      dyz     :     0.002671
      dx2y2   :     0.006581
      dxy     :     0.001442
  8 C s       :     2.989364  s :     2.989364
      pz      :     1.037436  p :     2.632203
      px      :     0.661943
      py      :     0.932825
      dz2     :     0.011595  d :     0.069191
      dxz     :     0.016704
      dyz     :     0.007868
      dx2y2   :     0.021598
      dxy     :     0.011426
  9 O s       :     3.806501  s :     3.806501
      pz      :     1.699339  p :     4.734051
      px      :     1.274130
      py      :     1.760581
      dz2     :     0.002327  d :     0.017780
      dxz     :     0.005872
      dyz     :     0.002535
      dx2y2   :     0.002659
      dxy     :     0.004387
 10 C s       :     2.980320  s :     2.980320
      pz      :     0.821176  p :     2.491830
      px      :     0.821156
      py      :     0.849498
      dz2     :     0.017878  d :     0.086944
      dxz     :     0.023702
      dyz     :     0.010885
      dx2y2   :     0.015884
      dxy     :     0.018595
 11 C s       :     3.191843  s :     3.191843
      pz      :     0.972798  p :     2.941978
      px      :     0.928102
      py      :     1.041078
      dz2     :     0.009216  d :     0.040678
      dxz     :     0.009750
      dyz     :     0.007142
      dx2y2   :     0.008249
      dxy     :     0.006322
 12 C s       :     3.115863  s :     3.115863
      pz      :     0.928620  p :     2.807263
      px      :     0.957364
      py      :     0.921278
      dz2     :     0.007522  d :     0.045561
      dxz     :     0.012734
      dyz     :     0.005349
      dx2y2   :     0.009352
      dxy     :     0.010604
 13 C s       :     3.134142  s :     3.134142
      pz      :     0.962389  p :     2.902305
      px      :     0.934001
      py      :     1.005915
      dz2     :     0.008584  d :     0.042748
      dxz     :     0.011519
      dyz     :     0.006436
      dx2y2   :     0.008554
      dxy     :     0.007656
 14 C s       :     3.149824  s :     3.149824
      pz      :     0.911937  p :     2.728449
      px      :     0.908868
      py      :     0.907644
      dz2     :     0.010224  d :     0.044930
      dxz     :     0.011627
      dyz     :     0.007149
      dx2y2   :     0.008358
      dxy     :     0.007572
 15 C s       :     3.044237  s :     3.044237
      pz      :     1.073986  p :     3.202984
      px      :     1.017318
      py      :     1.111679
      dz2     :     0.009933  d :     0.050307
      dxz     :     0.012790
      dyz     :     0.007910
      dx2y2   :     0.010168
      dxy     :     0.009505
 16 C s       :     3.021442  s :     3.021442
      pz      :     0.962220  p :     2.828592
      px      :     0.935171
      py      :     0.931202
      dz2     :     0.019395  d :     0.059030
      dxz     :     0.012529
      dyz     :     0.014290
      dx2y2   :     0.006926
      dxy     :     0.005889
 17 N s       :     3.622501  s :     3.622501
      pz      :     1.237038  p :     3.444623
      px      :     1.058252
      py      :     1.149333
      dz2     :     0.011534  d :     0.038151
      dxz     :     0.008795
      dyz     :     0.009826
      dx2y2   :     0.003938
      dxy     :     0.004058
 18 H s       :     0.954118  s :     0.954118
      pz      :     0.008783  p :     0.024749
      px      :     0.005561
      py      :     0.010405
 19 H s       :     0.942260  s :     0.942260
      pz      :     0.014537  p :     0.025073
      px      :     0.007230
      py      :     0.003305
 20 H s       :     0.941760  s :     0.941760
      pz      :     0.004372  p :     0.025168
      px      :     0.016966
      py      :     0.003830
 21 H s       :     0.944125  s :     0.944125
      pz      :     0.003825  p :     0.025060
      px      :     0.016883
      py      :     0.004352
 22 H s       :     0.932755  s :     0.932755
      pz      :     0.005894  p :     0.024858
      px      :     0.003744
      py      :     0.015220
 23 H s       :     0.953104  s :     0.953104
      pz      :     0.009724  p :     0.024982
      px      :     0.004696
      py      :     0.010562
 24 H s       :     0.944905  s :     0.944905
      pz      :     0.014789  p :     0.025287
      px      :     0.006965
      py      :     0.003533
 25 H s       :     0.930836  s :     0.930836
      pz      :     0.005308  p :     0.024897
      px      :     0.004287
      py      :     0.015302
 26 H s       :     0.941655  s :     0.941655
      pz      :     0.004166  p :     0.025232
      px      :     0.017428
      py      :     0.003638
 27 H s       :     0.823105  s :     0.823105
      pz      :     0.020390  p :     0.043839
      px      :     0.005834
      py      :     0.017616
 28 H s       :     0.961610  s :     0.961610
      pz      :     0.004349  p :     0.022969
      px      :     0.002471
      py      :     0.016149
 29 H s       :     0.922683  s :     0.922683
      pz      :     0.011307  p :     0.023655
      px      :     0.003207
      py      :     0.009140
 30 H s       :     0.936735  s :     0.936735
      pz      :     0.012057  p :     0.022881
      px      :     0.009037
      py      :     0.001787
 31 H s       :     0.719673  s :     0.719673
      pz      :     0.020601  p :     0.070954
      px      :     0.038529
      py      :     0.011824
 32 H s       :     0.946781  s :     0.946781
      pz      :     0.004693  p :     0.024358
      px      :     0.001899
      py      :     0.017766
 33 H s       :     0.929732  s :     0.929732
      pz      :     0.014795  p :     0.023510
      px      :     0.004721
      py      :     0.003994
 34 H s       :     0.930658  s :     0.930658
      pz      :     0.005379  p :     0.026222
      px      :     0.015884
      py      :     0.004960
 35 H s       :     0.920112  s :     0.920112
      pz      :     0.014322  p :     0.025505
      px      :     0.002751
      py      :     0.008432
 36 H s       :     0.923774  s :     0.923774
      pz      :     0.007393  p :     0.025797
      px      :     0.012801
      py      :     0.005603
 37 H s       :     0.912738  s :     0.912738
      pz      :     0.004329  p :     0.025847
      px      :     0.017518
      py      :     0.004000


                     *******************************
                     * LOEWDIN POPULATION ANALYSIS *
                     *******************************

----------------------
LOEWDIN ATOMIC CHARGES
----------------------
   0 C :   -0.034426
   1 C :    0.004400
   2 C :   -0.023044
   3 C :   -0.023713
   4 N :   -0.151419
   5 C :    0.049670
   6 C :    0.093308
   7 O :   -0.199807
   8 C :    0.125658
   9 O :   -0.175564
  10 C :    0.142036
  11 C :   -0.088574
  12 C :    0.023612
  13 C :   -0.058509
  14 C :    0.043744
  15 C :   -0.112480
  16 C :    0.018240
  17 N :   -0.107733
  18 H :    0.012135
  19 H :    0.013327
  20 H :    0.019967
  21 H :    0.017499
  22 H :    0.020291
  23 H :    0.011446
  24 H :    0.012674
  25 H :    0.022457
  26 H :    0.021138
  27 H :    0.050951
  28 H :   -0.004616
  29 H :    0.021855
  30 H :    0.016574
  31 H :    0.074377
  32 H :    0.004507
  33 H :    0.023734
  34 H :    0.027274
  35 H :    0.034599
  36 H :    0.031180
  37 H :    0.043231

-------------------------------
LOEWDIN REDUCED ORBITAL CHARGES
-------------------------------
  0 C s       :     2.839763  s :     2.839763
      pz      :     1.042932  p :     3.111776
      px      :     1.052800
      py      :     1.016044
      dz2     :     0.014608  d :     0.082887
      dxz     :     0.014324
      dyz     :     0.021216
      dx2y2   :     0.024139
      dxy     :     0.008600
  1 C s       :     2.845569  s :     2.845569
      pz      :     1.042156  p :     2.993682
      px      :     0.913961
      py      :     1.037566
      dz2     :     0.022376  d :     0.156349
      dxz     :     0.033370
      dyz     :     0.032335
      dx2y2   :     0.043508
      dxy     :     0.024760
  2 C s       :     2.840657  s :     2.840657
      pz      :     1.012665  p :     3.099950
      px      :     1.034854
      py      :     1.052431
      dz2     :     0.012549  d :     0.082438
      dxz     :     0.017338
      dyz     :     0.024250
      dx2y2   :     0.023960
      dxy     :     0.004341
  3 C s       :     2.836647  s :     2.836647
      pz      :     1.030850  p :     3.105041
      px      :     1.046381
      py      :     1.027810
      dz2     :     0.018278  d :     0.082024
      dxz     :     0.013976
      dyz     :     0.018409
      dx2y2   :     0.025240
      dxy     :     0.006121
  4 N s       :     3.135904  s :     3.135904
      pz      :     1.223334  p :     3.962449
      px      :     1.137530
      py      :     1.601586
      dz2     :     0.006646  d :     0.053065
      dxz     :     0.017149
      dyz     :     0.011347
      dx2y2   :     0.011410
      dxy     :     0.006513
  5 C s       :     2.834223  s :     2.834223
      pz      :     0.977536  p :     2.989048
      px      :     0.962501
      py      :     1.049011
      dz2     :     0.015519  d :     0.127059
      dxz     :     0.035630
      dyz     :     0.029131
      dx2y2   :     0.031054
      dxy     :     0.015724
  6 C s       :     2.849218  s :     2.849218
      pz      :     1.004239  p :     2.895756
      px      :     1.032819
      py      :     0.858699
      dz2     :     0.020528  d :     0.161718
      dxz     :     0.031176
      dyz     :     0.042680
      dx2y2   :     0.038589
      dxy     :     0.028744
  7 O s       :     3.459074  s :     3.459074
      pz      :     1.716430  p :     4.717115
      px      :     1.501577
      py      :     1.499108
      dz2     :     0.002029  d :     0.023618
      dxz     :     0.003920
      dyz     :     0.004180
      dx2y2   :     0.011334
      dxy     :     0.002156
  8 C s       :     2.842585  s :     2.842585
      pz      :     1.065817  p :     2.884742
      px      :     0.786594
      py      :     1.032332
      dz2     :     0.023755  d :     0.147015
      dxz     :     0.036310
      dyz     :     0.016996
      dx2y2   :     0.044913
      dxy     :     0.025042
  9 O s       :     3.441328  s :     3.441328
      pz      :     1.692978  p :     4.704511
      px      :     1.265704
      py      :     1.745829
      dz2     :     0.003601  d :     0.029725
      dxz     :     0.010071
      dyz     :     0.003116
      dx2y2   :     0.005469
      dxy     :     0.007467
 10 C s       :     2.827766  s :     2.827766
      pz      :     0.973819  p :     2.846889
      px      :     0.944768
      py      :     0.928302
      dz2     :     0.037289  d :     0.183309
      dxz     :     0.051132
      dyz     :     0.022841
      dx2y2   :     0.033880
      dxy     :     0.038168
 11 C s       :     2.848246  s :     2.848246
      pz      :     1.044679  p :     3.147129
      px      :     1.048337
      py      :     1.054113
      dz2     :     0.020464  d :     0.093199
      dxz     :     0.023921
      dyz     :     0.016292
      dx2y2   :     0.018736
      dxy     :     0.013785
 12 C s       :     2.854316  s :     2.854316
      pz      :     1.001881  p :     3.021264
      px      :     1.070139
      py      :     0.949244
      dz2     :     0.016425  d :     0.100808
      dxz     :     0.028971
      dyz     :     0.011356
      dx2y2   :     0.021414
      dxy     :     0.022643
 13 C s       :     2.848080  s :     2.848080
      pz      :     1.038975  p :     3.113338
      px      :     1.047827
      py      :     1.026536
      dz2     :     0.018727  d :     0.097091
      dxz     :     0.028014
      dyz     :     0.014075
      dx2y2   :     0.019369
      dxy     :     0.016905
 14 C s       :     2.853034  s :     2.853034
      pz      :     1.010897  p :     3.003541
      px      :     1.040342
      py      :     0.952301
      dz2     :     0.022149  d :     0.099682
      dxz     :     0.027144
      dyz     :     0.015397
      dx2y2   :     0.018672
      dxy     :     0.016319
 15 C s       :     2.831420  s :     2.831420
      pz      :     1.035132  p :     3.165741
      px      :     1.068974
      py      :     1.061635
      dz2     :     0.022899  d :     0.115319
      dxz     :     0.029962
      dyz     :     0.018139
      dx2y2   :     0.023762
      dxy     :     0.020558
 16 C s       :     2.898845  s :     2.898845
      pz      :     1.075373  p :     2.963511
      px      :     0.910389
      py      :     0.977749
      dz2     :     0.038295  d :     0.119404
      dxz     :     0.024504
      dyz     :     0.032036
      dx2y2   :     0.013116
      dxy     :     0.011454
 17 N s       :     3.421469  s :     3.421469
      pz      :     1.351311  p :     3.629067
      px      :     1.076449
      py      :     1.201307
      dz2     :     0.016809  d :     0.057197
      dxz     :     0.012026
      dyz     :     0.017504
      dx2y2   :     0.005347
      dxy     :     0.005511
 18 H s       :     0.922557  s :     0.922557
      pz      :     0.022154  p :     0.065307
      px      :     0.015163
      py      :     0.027990
 19 H s       :     0.920572  s :     0.920572
      pz      :     0.034705  p :     0.066101
      px      :     0.018829
      py      :     0.012566
 20 H s       :     0.914156  s :     0.914156
      pz      :     0.013148  p :     0.065877
      px      :     0.039246
      py      :     0.013482
 21 H s       :     0.917284  s :     0.917284
      pz      :     0.012594  p :     0.065217
      px      :     0.039900
      py      :     0.012723
 22 H s       :     0.913856  s :     0.913856
      pz      :     0.017985  p :     0.065854
      px      :     0.011998
      py      :     0.035871
 23 H s       :     0.923241  s :     0.923241
      pz      :     0.025882  p :     0.065313
      px      :     0.013789
      py      :     0.025642
 24 H s       :     0.921071  s :     0.921071
      pz      :     0.035786  p :     0.066255
      px      :     0.018318
      py      :     0.012151
 25 H s       :     0.911591  s :     0.911591
      pz      :     0.015377  p :     0.065952
      px      :     0.012610
      py      :     0.037965
 26 H s       :     0.913467  s :     0.913467
      pz      :     0.012969  p :     0.065394
      px      :     0.040333
      py      :     0.012093
 27 H s       :     0.822369  s :     0.822369
      pz      :     0.050402  p :     0.126680
      px      :     0.021484
      py      :     0.054794
 28 H s       :     0.937663  s :     0.937663
      pz      :     0.015857  p :     0.066952
      px      :     0.012386
      py      :     0.038710
 29 H s       :     0.911731  s :     0.911731
      pz      :     0.029403  p :     0.066414
      px      :     0.013594
      py      :     0.023416
 30 H s       :     0.918206  s :     0.918206
      pz      :     0.031249  p :     0.065220
      px      :     0.024836
      py      :     0.009135
 31 H s       :     0.738707  s :     0.738707
      pz      :     0.055867  p :     0.186917
      px      :     0.095342
      py      :     0.035707
 32 H s       :     0.928767  s :     0.928767
      pz      :     0.014782  p :     0.066726
      px      :     0.008120
      py      :     0.043825
 33 H s       :     0.911648  s :     0.911648
      pz      :     0.037977  p :     0.064618
      px      :     0.014669
      py      :     0.011972
 34 H s       :     0.900893  s :     0.900893
      pz      :     0.016717  p :     0.071834
      px      :     0.038301
      py      :     0.016816
 35 H s       :     0.897710  s :     0.897710
      pz      :     0.034509  p :     0.067691
      px      :     0.010851
      py      :     0.022331
 36 H s       :     0.899594  s :     0.899594
      pz      :     0.020562  p :     0.069226
      px      :     0.031285
      py      :     0.017379
 37 H s       :     0.888298  s :     0.888298
      pz      :     0.013722  p :     0.068471
      px      :     0.041763
      py      :     0.012986


                      *****************************
                      * MAYER POPULATION ANALYSIS *
                      *****************************

  NA   - Mulliken gross atomic population
  ZA   - Total nuclear charge
  QA   - Mulliken gross atomic charge
  VA   - Mayer's total valence
  BVA  - Mayer's bonded valence
  FA   - Mayer's free valence

  ATOM       NA         ZA         QA         VA         BVA        FA
  0 C      5.9537     6.0000     0.0463     3.8277     3.8277    -0.0000
  1 C      6.2547     6.0000    -0.2547     3.9672     3.9672    -0.0000
  2 C      5.9471     6.0000     0.0529     3.8624     3.8624    -0.0000
  3 C      5.9500     6.0000     0.0500     3.8508     3.8508     0.0000
  4 N      7.5039     7.0000    -0.5039     2.7692     2.7692    -0.0000
  5 C      5.8507     6.0000     0.1493     3.8348     3.8348     0.0000
  6 C      5.8237     6.0000     0.1763     3.8840     3.8840    -0.0000
  7 O      8.4766     8.0000    -0.4766     1.8978     1.8978    -0.0000
  8 C      5.6908     6.0000     0.3092     3.7402     3.7402    -0.0000
  9 O      8.5583     8.0000    -0.5583     1.9144     1.9144    -0.0000
 10 C      5.5591     6.0000     0.4409     3.8279     3.8279    -0.0000
 11 C      6.1745     6.0000    -0.1745     3.8494     3.8494     0.0000
 12 C      5.9687     6.0000     0.0313     3.8628     3.8628    -0.0000
 13 C      6.0792     6.0000    -0.0792     3.8761     3.8761    -0.0000
 14 C      5.9232     6.0000     0.0768     3.9199     3.9199     0.0000
 15 C      6.2975     6.0000    -0.2975     3.9007     3.9007     0.0000
 16 C      5.9091     6.0000     0.0909     4.0214     4.0214     0.0000
 17 N      7.1053     7.0000    -0.1053     3.0936     3.0936     0.0000
 18 H      0.9789     1.0000     0.0211     0.9905     0.9905    -0.0000
 19 H      0.9673     1.0000     0.0327     0.9850     0.9850    -0.0000
 20 H      0.9669     1.0000     0.0331     0.9877     0.9877     0.0000
 21 H      0.9692     1.0000     0.0308     0.9870     0.9870     0.0000
 22 H      0.9576     1.0000     0.0424     0.9904     0.9904    -0.0000
 23 H      0.9781     1.0000     0.0219     0.9884     0.9884    -0.0000
 24 H      0.9702     1.0000     0.0298     0.9866     0.9866    -0.0000
 25 H      0.9557     1.0000     0.0443     0.9902     0.9902     0.0000
 26 H      0.9669     1.0000     0.0331     0.9870     0.9870    -0.0000
 27 H      0.8669     1.0000     0.1331     0.9729     0.9729     0.0000
 28 H      0.9846     1.0000     0.0154     0.9712     0.9712     0.0000
 29 H      0.9463     1.0000     0.0537     0.9868     0.9868    -0.0000
 30 H      0.9596     1.0000     0.0404     0.9894     0.9894     0.0000
 31 H      0.7906     1.0000     0.2094     1.0151     1.0151    -0.0000
 32 H      0.9711     1.0000     0.0289     0.9844     0.9844    -0.0000
 33 H      0.9532     1.0000     0.0468     1.0042     1.0042    -0.0000
 34 H      0.9569     1.0000     0.0431     0.9917     0.9917     0.0000
 35 H      0.9456     1.0000     0.0544     0.9853     0.9853    -0.0000
 36 H      0.9496     1.0000     0.0504     0.9870     0.9870    -0.0000
 37 H      0.9386     1.0000     0.0614     0.9929     0.9929     0.0000

  Mayer bond orders larger than 0.100000
B(  0-C ,  1-C ) :   0.9910 B(  0-C , 18-H ) :   0.9806 B(  0-C , 19-H ) :   0.9817 
B(  0-C , 20-H ) :   0.9811 B(  1-C ,  2-C ) :   1.0191 B(  1-C ,  3-C ) :   1.0062 
B(  1-C ,  4-N ) :   0.9097 B(  2-C , 21-H ) :   0.9846 B(  2-C , 22-H ) :   0.9839 
B(  2-C , 23-H ) :   0.9815 B(  3-C , 24-H ) :   0.9811 B(  3-C , 25-H ) :   0.9813 
B(  3-C , 26-H ) :   0.9829 B(  4-N ,  5-C ) :   0.9166 B(  4-N , 27-H ) :   0.9459 
B(  5-C ,  6-C ) :   1.0320 B(  5-C , 28-H ) :   0.9638 B(  5-C , 29-H ) :   0.9686 
B(  6-C ,  7-O ) :   0.9149 B(  6-C ,  8-C ) :   0.9797 B(  6-C , 30-H ) :   0.9679 
B(  7-O , 31-H ) :   0.9509 B(  8-C ,  9-O ) :   0.8364 B(  8-C , 32-H ) :   0.9810 
B(  8-C , 33-H ) :   0.9607 B(  9-O , 10-C ) :   1.0459 B( 10-C , 11-C ) :   1.3510 
B( 10-C , 15-C ) :   1.3811 B( 11-C , 12-C ) :   1.4006 B( 11-C , 34-H ) :   1.0041 
B( 12-C , 13-C ) :   1.4111 B( 12-C , 35-H ) :   0.9974 B( 13-C , 14-C ) :   1.4207 
B( 13-C , 36-H ) :   1.0003 B( 14-C , 15-C ) :   1.4120 B( 14-C , 37-H ) :   1.0008 
B( 15-C , 16-C ) :   1.0214 B( 16-C , 17-N ) :   3.0269 

-------
TIMINGS
-------

Total SCF time: 0 days 0 hours 0 min 15 sec 

Total time                  ....      15.779 sec
Sum of individual times     ....      15.503 sec  ( 98.3%)

Fock matrix formation       ....      14.670 sec  ( 93.0%)
Diagonalization             ....       0.221 sec  (  1.4%)
Density matrix formation    ....       0.029 sec  (  0.2%)
Population analysis         ....       0.029 sec  (  0.2%)
Initial guess               ....       0.105 sec  (  0.7%)
Orbital Transformation      ....       0.000 sec  (  0.0%)
Orbital Orthonormalization  ....       0.000 sec  (  0.0%)
DIIS solution               ....       0.125 sec  (  0.8%)
SOSCF solution              ....       0.179 sec  (  1.1%)

Maximum memory used throughout the entire SCF-calculation: 237.0 MB

-------------------------   --------------------
FINAL SINGLE POINT ENERGY      -799.793368352396
-------------------------   --------------------


                            ***************************************
                            *     ORCA property calculations      *
                            ***************************************

                                    ---------------------
                                    Active property flags
                                    ---------------------
   (+) Dipole Moment


------------------------------------------------------------------------------
                       ORCA ELECTRIC PROPERTIES CALCULATION
------------------------------------------------------------------------------

Dipole Moment Calculation                       ... on
Quadrupole Moment Calculation                   ... off
Polarizability Calculation                      ... off
GBWName                                         ... ./ZINC000000000104/ZINC000000000104.gbw
Electron density                                ... ./ZINC000000000104/ZINC000000000104.scfp
The origin for moment calculation is the CENTER OF MASS  = ( 1.875520,  0.292725  0.282428)

-------------
DIPOLE MOMENT
-------------
                                X             Y             Z
Electronic contribution:     36.61872       2.86144       7.85484
Nuclear contribution   :    -38.31965      -5.00968      -9.84499
                        -----------------------------------------
Total Dipole Moment    :     -1.70094      -2.14824      -1.99015
                        -----------------------------------------
Magnitude (a.u.)       :      3.38656
Magnitude (Debye)      :      8.60796



--------------------
Rotational spectrum 
--------------------
 
Rotational constants in cm-1:     0.030567     0.005320     0.004841 
Rotational constants in MHz :   916.370466   159.495507   145.144096 

 Dipole components along the rotational axes: 
x,y,z [a.u.] :    -1.711426    -2.861040     0.595206 
x,y,z [Debye]:    -4.350099    -7.272186     1.512892 

 

Timings for individual modules:

Sum of individual times         ...       16.409 sec (=   0.273 min)
GTO integral calculation        ...        0.408 sec (=   0.007 min)   2.5 %
SCF iterations                  ...       16.002 sec (=   0.267 min)  97.5 %
                             ****ORCA TERMINATED NORMALLY****
TOTAL RUN TIME: 0 days 0 hours 0 minutes 16 seconds 767 msec
