
                                 *****************
                                 * O   R   C   A *
                                 *****************

                                            #,                                       
                                            ###                                      
                                            ####                                     
                                            #####                                    
                                            ######                                   
                                           ########,                                 
                                     ,,################,,,,,                         
                               ,,#################################,,                 
                          ,,##########################################,,             
                       ,#########################################, ''#####,          
                    ,#############################################,,   '####,        
                  ,##################################################,,,,####,       
                ,###########''''           ''''###############################       
              ,#####''   ,,,,##########,,,,          '''####'''          '####       
            ,##' ,,,,###########################,,,                        '##       
           ' ,,###''''                  '''############,,,                           
         ,,##''                                '''############,,,,        ,,,,,,###''
      ,#''                                            '''#######################'''  
     '                                                          ''''####''''         
             ,#######,   #######,   ,#######,      ##                                
            ,#'     '#,  ##    ##  ,#'     '#,    #''#        ######   ,####,        
            ##       ##  ##   ,#'  ##            #'  '#       #        #'  '#        
            ##       ##  #######   ##           ,######,      #####,   #    #        
            '#,     ,#'  ##    ##  '#,     ,#' ,#      #,         ##   #,  ,#        
             '#######'   ##     ##  '#######'  #'      '#     #####' # '####'        



                  #######################################################
                  #                        -***-                        #
                  #          Department of theory and spectroscopy      #
                  #    Directorship and core code : Frank Neese         #
                  #        Max Planck Institute fuer Kohlenforschung    #
                  #                Kaiser Wilhelm Platz 1               #
                  #                 D-45470 Muelheim/Ruhr               #
                  #                      Germany                        #
                  #                                                     #
                  #                  All rights reserved                #
                  #                        -***-                        #
                  #######################################################


                         Program Version 5.0.3 -  RELEASE  -


 With contributions from (in alphabetic order):
   Daniel Aravena         : Magnetic Suceptibility
   Michael Atanasov       : Ab Initio Ligand Field Theory (pilot matlab implementation)
   Alexander A. Auer      : GIAO ZORA, VPT2 properties, NMR spectrum
   Ute Becker             : Parallelization
   Giovanni Bistoni       : ED, misc. LED, open-shell LED, HFLD
   Martin Brehm           : Molecular dynamics
   Dmytro Bykov           : SCF Hessian
   Vijay G. Chilkuri      : MRCI spin determinant printing, contributions to CSF-ICE
   Dipayan Datta          : RHF DLPNO-CCSD density
   Achintya Kumar Dutta   : EOM-CC, STEOM-CC
   Dmitry Ganyushin       : Spin-Orbit,Spin-Spin,Magnetic field MRCI
   Miquel Garcia          : C-PCM and meta-GGA Hessian, CC/C-PCM, Gaussian charge scheme
   Yang Guo               : DLPNO-NEVPT2, F12-NEVPT2, CIM, IAO-localization
   Andreas Hansen         : Spin unrestricted coupled pair/coupled cluster methods
   Benjamin Helmich-Paris : MC-RPA, TRAH-SCF, COSX integrals
   Lee Huntington         : MR-EOM, pCC
   Robert Izsak           : Overlap fitted RIJCOSX, COSX-SCS-MP3, EOM
   Marcus Kettner         : VPT2
   Christian Kollmar      : KDIIS, OOCD, Brueckner-CCSD(T), CCSD density, CASPT2, CASPT2-K
   Simone Kossmann        : Meta GGA functionals, TD-DFT gradient, OOMP2, MP2 Hessian
   Martin Krupicka        : Initial AUTO-CI
   Lucas Lang             : DCDCAS
   Marvin Lechner         : AUTO-CI (C++ implementation), FIC-MRCC
   Dagmar Lenk            : GEPOL surface, SMD
   Dimitrios Liakos       : Extrapolation schemes; Compound Job, initial MDCI parallelization
   Dimitrios Manganas     : Further ROCIS development; embedding schemes
   Dimitrios Pantazis     : SARC Basis sets
   Anastasios Papadopoulos: AUTO-CI, single reference methods and gradients
   Taras Petrenko         : DFT Hessian,TD-DFT gradient, ASA, ECA, R-Raman, ABS, FL, XAS/XES, NRVS
   Peter Pinski           : DLPNO-MP2, DLPNO-MP2 Gradient
   Christoph Reimann      : Effective Core Potentials
   Marius Retegan         : Local ZFS, SOC
   Christoph Riplinger    : Optimizer, TS searches, QM/MM, DLPNO-CCSD(T), (RO)-DLPNO pert. Triples
   Tobias Risthaus        : Range-separated hybrids, TD-DFT gradient, RPA, STAB
   Michael Roemelt        : Original ROCIS implementation
   Masaaki Saitow         : Open-shell DLPNO-CCSD energy and density
   Barbara Sandhoefer     : DKH picture change effects
   Avijit Sen             : IP-ROCIS
   Kantharuban Sivalingam : CASSCF convergence, NEVPT2, FIC-MRCI
   Bernardo de Souza      : ESD, SOC TD-DFT
   Georgi Stoychev        : AutoAux, RI-MP2 NMR, DLPNO-MP2 response
   Willem Van den Heuvel  : Paramagnetic NMR
   Boris Wezisla          : Elementary symmetry handling
   Frank Wennmohs         : Technical directorship


 We gratefully acknowledge several colleagues who have allowed us to
 interface, adapt or use parts of their codes:
   Stefan Grimme, W. Hujo, H. Kruse, P. Pracht,  : VdW corrections, initial TS optimization,
                  C. Bannwarth, S. Ehlert          DFT functionals, gCP, sTDA/sTD-DF
   Ed Valeev, F. Pavosevic, A. Kumar             : LibInt (2-el integral package), F12 methods
   Garnet Chan, S. Sharma, J. Yang, R. Olivares  : DMRG
   Ulf Ekstrom                                   : XCFun DFT Library
   Mihaly Kallay                                 : mrcc  (arbitrary order and MRCC methods)
   Jiri Pittner, Ondrej Demel                    : Mk-CCSD
   Frank Weinhold                                : gennbo (NPA and NBO analysis)
   Christopher J. Cramer and Donald G. Truhlar   : smd solvation model
   Lars Goerigk                                  : TD-DFT with DH, B97 family of functionals
   V. Asgeirsson, H. Jonsson                     : NEB implementation
   FAccTs GmbH                                   : IRC, NEB, NEB-TS, DLPNO-Multilevel, CI-OPT
                                                   MM, QMMM, 2- and 3-layer-ONIOM, Crystal-QMMM,
                                                   LR-CPCM, SF, NACMEs, symmetry and pop. for TD-DFT,
                                                   nearIR, NL-DFT gradient (VV10), updates on ESD,
                                                   ML-optimized integration grids
   S Lehtola, MJT Oliveira, MAL Marques          : LibXC Library
   Liviu Ungur et al                             : ANISO software


 Your calculation uses the libint2 library for the computation of 2-el integrals
 For citations please refer to: http://libint.valeyev.net

 Your ORCA version has been built with support for libXC version: 5.1.0
 For citations please refer to: https://tddft.org/programs/libxc/

 This ORCA versions uses:
   CBLAS   interface :  Fast vector & matrix operations
   LAPACKE interface :  Fast linear algebra routines
   SCALAPACK package :  Parallel linear algebra routines
   Shared memory     :  Shared parallel matrices
   BLAS/LAPACK       :  OpenBLAS 0.3.15  USE64BITINT DYNAMIC_ARCH NO_AFFINITY Zen SINGLE_THREADED
        Core in use  :  Zen
   Copyright (c) 2011-2014, The OpenBLAS Project


================================================================================

----- Orbital basis set information -----
Your calculation utilizes the basis: def2-SVP
   F. Weigend and R. Ahlrichs, Phys. Chem. Chem. Phys. 7, 3297 (2005).

================================================================================
                                        WARNINGS
                       Please study these warnings very carefully!
================================================================================


INFO   : the flag for use of the SHARK integral package has been found!

================================================================================
                                       INPUT FILE
================================================================================
NAME = ./ZINC000000000198/ZINC000000000198.inp
|  1> !RHF def2-SVP TightSCF PAL16 
|  2> *xyz 0 1
|  3> C 4.530511527150675 1.8437557219183345 1.0489976874927454
|  4> C 5.046096862824008 1.1787131417531747 -0.2198274903809318
|  5> N 4.097892415088382 0.12860311568020796 -0.8169188443123097
|  6> C 4.689870970987798 -0.33122442653253364 -2.151974991939768
|  7> C 3.916522229956293 -1.0986395831504658 0.10533550233476563
|  8> C 2.434037807991161 -1.4049852121189599 0.05862669749959583
|  9> C 1.7925598444484243 -0.031185888937987898 -0.023468905600355368
| 10> O 0.4438312040845471 -0.10156973794085068 -0.48811257934846997
| 11> C -0.4736873153617012 -0.42204050431506346 0.4786644699080895
| 12> O -0.16963122099837027 -0.7142258095225573 1.6275912231499163
| 13> C -1.891958725717481 -0.32282213599647136 -0.07887226888246798
| 14> C -2.3088565612449807 1.1386946177411341 -0.15524593893939795
| 15> C -2.434574428769813 1.9200738946543523 1.004682403828316
| 16> C -2.8154177675098464 3.259911031380338 0.9199305505632265
| 17> C -3.073257877605197 3.8348106925394347 -0.3221605102614357
| 18> C -2.9513824435508984 3.0708043634256312 -1.4815428676435078
| 19> C -2.5704111071503686 1.7306990712535193 -1.400428671698608
| 20> C -2.8773802343737067 -1.1847763187401341 0.7378124923700197
| 21> C -4.314505509190702 -1.1547857564500779 0.20561406279024871
| 22> C -4.978278107121073 -2.39108992994351 0.8069533924666578
| 23> C -3.8445547158962197 -3.3418786715862043 1.1850550738792762
| 24> C -2.564810954476917 -2.684840720551746 0.6832412085457759
| 25> C 2.668269156751135 0.6695756588826153 -1.0596049077704632
| 26> H 5.280383784365278 2.555576034500355 1.412076484676057
| 27> H 4.347066982971053 1.1315399703860323 1.857702995845528
| 28> H 3.612524730478633 2.4112264643566306 0.8762361064444122
| 29> H 5.206997332351758 1.937730890166275 -0.99408018708259
| 30> H 5.997236231103954 0.6701929299505841 -0.023401980015654807
| 31> H 4.053659057487117 -1.1215033262212062 -2.5619774229002656
| 32> H 4.719540222058705 0.5270544786302759 -2.8294299457639376
| 33> H 5.698765071698414 -0.7117940814844869 -1.9666383177029942
| 34> H 4.5384071172526195 -1.9239542095195457 -0.2568380113227426
| 35> H 4.234474968580736 -0.8323887656980488 1.1153753975181133
| 36> H 2.1820499377783418 -2.00692735577897 -0.8230276835900197
| 37> H 2.1070788924971247 -1.9728066026948725 0.9348658982688766
| 38> H 1.8540349730316965 0.507212418045926 0.9314271750091466
| 39> H -1.8545542039459448 -0.7423700455351168 -1.094186097922512
| 40> H -2.247766388464998 1.4920800336628306 1.9881944889725982
| 41> H -2.9229052372805224 3.8530061351303306 1.8253054999107845
| 42> H -3.381852326122109 4.876055630481881 -0.3852211387833926
| 43> H -3.1658077142490377 3.5186619545658067 -2.449112552438706
| 44> H -2.495205749121797 1.152034711846701 -2.3186303709304643
| 45> H -2.882827327173231 -0.8690383181168791 1.790575309541645
| 46> H -4.846582513677486 -0.23956879870827694 0.48263081071321373
| 47> H -4.324217542298007 -1.230661358489264 -0.8890233310555369
| 48> H -5.670618556631632 -2.850562357451412 0.09367962982852164
| 49> H -5.556305934083163 -2.1247358301897434 1.6995633551777496
| 50> H -3.982851327360682 -4.338704201328707 0.7568475416655188
| 51> H -3.8078227260521245 -3.4536340235653724 2.273700901899821
| 52> H -2.361099068314745 -3.0039238946981848 -0.34643892598622994
| 53> H -1.7043022818114082 -2.963003740016155 1.298645255290523
| 54> H 2.6581269173569435 1.7612286194514104 -0.9845094073935207
| 55> H 2.363487627257346 0.4004000248788226 -2.0786582659247674
| 56> *
| 57> 
| 58>                          ****END OF INPUT****
================================================================================

                       ****************************
                       * Single Point Calculation *
                       ****************************

---------------------------------
CARTESIAN COORDINATES (ANGSTROEM)
---------------------------------
  C      4.530512    1.843756    1.048998
  C      5.046097    1.178713   -0.219827
  N      4.097892    0.128603   -0.816919
  C      4.689871   -0.331224   -2.151975
  C      3.916522   -1.098640    0.105336
  C      2.434038   -1.404985    0.058627
  C      1.792560   -0.031186   -0.023469
  O      0.443831   -0.101570   -0.488113
  C     -0.473687   -0.422041    0.478664
  O     -0.169631   -0.714226    1.627591
  C     -1.891959   -0.322822   -0.078872
  C     -2.308857    1.138695   -0.155246
  C     -2.434574    1.920074    1.004682
  C     -2.815418    3.259911    0.919931
  C     -3.073258    3.834811   -0.322161
  C     -2.951382    3.070804   -1.481543
  C     -2.570411    1.730699   -1.400429
  C     -2.877380   -1.184776    0.737812
  C     -4.314506   -1.154786    0.205614
  C     -4.978278   -2.391090    0.806953
  C     -3.844555   -3.341879    1.185055
  C     -2.564811   -2.684841    0.683241
  C      2.668269    0.669576   -1.059605
  H      5.280384    2.555576    1.412076
  H      4.347067    1.131540    1.857703
  H      3.612525    2.411226    0.876236
  H      5.206997    1.937731   -0.994080
  H      5.997236    0.670193   -0.023402
  H      4.053659   -1.121503   -2.561977
  H      4.719540    0.527054   -2.829430
  H      5.698765   -0.711794   -1.966638
  H      4.538407   -1.923954   -0.256838
  H      4.234475   -0.832389    1.115375
  H      2.182050   -2.006927   -0.823028
  H      2.107079   -1.972807    0.934866
  H      1.854035    0.507212    0.931427
  H     -1.854554   -0.742370   -1.094186
  H     -2.247766    1.492080    1.988194
  H     -2.922905    3.853006    1.825305
  H     -3.381852    4.876056   -0.385221
  H     -3.165808    3.518662   -2.449113
  H     -2.495206    1.152035   -2.318630
  H     -2.882827   -0.869038    1.790575
  H     -4.846583   -0.239569    0.482631
  H     -4.324218   -1.230661   -0.889023
  H     -5.670619   -2.850562    0.093680
  H     -5.556306   -2.124736    1.699563
  H     -3.982851   -4.338704    0.756848
  H     -3.807823   -3.453634    2.273701
  H     -2.361099   -3.003924   -0.346439
  H     -1.704302   -2.963004    1.298645
  H      2.658127    1.761229   -0.984509
  H      2.363488    0.400400   -2.078658

----------------------------
CARTESIAN COORDINATES (A.U.)
----------------------------
  NO LB      ZA    FRAG     MASS         X           Y           Z
   0 C     6.0000    0    12.011    8.561426    3.484193    1.982318
   1 C     6.0000    0    12.011    9.535741    2.227445   -0.415414
   2 N     7.0000    0    14.007    7.743894    0.243025   -1.543753
   3 C     6.0000    0    12.011    8.862572   -0.625923   -4.066643
   4 C     6.0000    0    12.011    7.401154   -2.076128    0.199055
   5 C     6.0000    0    12.011    4.599665   -2.655037    0.110788
   6 C     6.0000    0    12.011    3.387447   -0.058933   -0.044350
   7 O     8.0000    0    15.999    0.838719   -0.191939   -0.922399
   8 C     6.0000    0    12.011   -0.895139   -0.797541    0.904545
   9 O     8.0000    0    15.999   -0.320557   -1.349691    3.075702
  10 C     6.0000    0    12.011   -3.575284   -0.610045   -0.149047
  11 C     6.0000    0    12.011   -4.363107    2.151821   -0.293372
  12 C     6.0000    0    12.011   -4.600679    3.628414    1.898575
  13 C     6.0000    0    12.011   -5.320369    6.160339    1.738417
  14 C     6.0000    0    12.011   -5.807616    7.246742   -0.608795
  15 C     6.0000    0    12.011   -5.577305    5.802979   -2.799710
  16 C     6.0000    0    12.011   -4.857373    3.270547   -2.646427
  17 C     6.0000    0    12.011   -5.437461   -2.238903    1.394264
  18 C     6.0000    0    12.011   -8.153234   -2.182229    0.388554
  19 C     6.0000    0    12.011   -9.407582   -4.518505    1.524921
  20 C     6.0000    0    12.011   -7.265156   -6.315235    2.239430
  21 C     6.0000    0    12.011   -4.846790   -5.073614    1.291139
  22 C     6.0000    0    12.011    5.042298    1.265315   -2.002363
  23 H     1.0000    0     1.008    9.978479    4.829339    2.668438
  24 H     1.0000    0     1.008    8.214766    2.138301    3.510550
  25 H     1.0000    0     1.008    6.826682    4.556558    1.655846
  26 H     1.0000    0     1.008    9.839799    3.661781   -1.878539
  27 H     1.0000    0     1.008   11.333134    1.266481   -0.044223
  28 H     1.0000    0     1.008    7.660305   -2.119334   -4.841436
  29 H     1.0000    0     1.008    8.918638    0.995989   -5.346848
  30 H     1.0000    0     1.008   10.769105   -1.345096   -3.716408
  31 H     1.0000    0     1.008    8.576347   -3.635747   -0.485354
  32 H     1.0000    0     1.008    8.001998   -1.572987    2.107754
  33 H     1.0000    0     1.008    4.123477   -3.792543   -1.555297
  34 H     1.0000    0     1.008    3.981802   -3.728064    1.766641
  35 H     1.0000    0     1.008    3.503618    0.958493    1.760142
  36 H     1.0000    0     1.008   -3.504600   -1.402876   -2.067712
  37 H     1.0000    0     1.008   -4.247663    2.819623    3.757143
  38 H     1.0000    0     1.008   -5.523490    7.281126    3.449328
  39 H     1.0000    0     1.008   -6.390775    9.214410   -0.727962
  40 H     1.0000    0     1.008   -5.982510    6.649307   -4.628152
  41 H     1.0000    0     1.008   -4.715256    2.177030   -4.381576
  42 H     1.0000    0     1.008   -5.447754   -1.642244    3.383697
  43 H     1.0000    0     1.008   -9.158714   -0.452719    0.912040
  44 H     1.0000    0     1.008   -8.171587   -2.325613   -1.680011
  45 H     1.0000    0     1.008  -10.715916   -5.386782    0.177029
  46 H     1.0000    0     1.008  -10.499897   -4.015169    3.211709
  47 H     1.0000    0     1.008   -7.526498   -8.198963    1.430235
  48 H     1.0000    0     1.008   -7.195742   -6.526422    4.296672
  49 H     1.0000    0     1.008   -4.461831   -5.676593   -0.654675
  50 H     1.0000    0     1.008   -3.220665   -5.599266    2.454084
  51 H     1.0000    0     1.008    5.023132    3.328240   -1.860453
  52 H     1.0000    0     1.008    4.466344    0.756646   -3.928095

--------------------------------
INTERNAL COORDINATES (ANGSTROEM)
--------------------------------
 C      0   0   0     0.000000000000     0.00000000     0.00000000
 C      1   0   0     1.522506881364     0.00000000     0.00000000
 N      2   1   0     1.535689039651   114.43266691     0.00000000
 C      3   2   1     1.531095978879   107.79810109   174.15105114
 C      3   2   1     1.545824332128   112.54158257   294.50015034
 C      5   3   2     1.514526136521   104.89403467   137.31799864
 C      6   5   3     1.518406482511   103.42600826   324.02070155
 O      7   6   5     1.428256480851   111.83574031   161.85350217
 C      8   7   6     1.370839016295   114.46465238    81.77212029
 O      9   8   7     1.223868884078   123.47608892   355.29860666
 C      9   8   7     1.527149401056   110.42198240   173.82408851
 C     11   9   8     1.521731896295   109.58180680   282.65929523
 C     12  11   9     1.404205226084   121.16520885   296.18259150
 C     13  12  11     1.395488472989   120.56605244   179.88384659
 C     14  13  12     1.392760333351   120.06631941   359.92378320
 C     15  14  13     1.393817327687   119.95844253     0.03224965
 C     16  15  14     1.395564712240   120.12444296   359.95227474
 C     11   9   8     1.543047167825   111.31966328   157.13671214
 C     18  11   9     1.532796026153   113.83255508   181.43787987
 C     19  18  11     1.526646999334   104.77625075   160.83434774
 C     20  19  18     1.527183302859   106.19584508   338.73075964
 C     21  20  19     1.523568219487   105.87426829   355.21422244
 C      7   6   5     1.526928734929   102.10049037    44.18897287
 H      1   2   3     1.095820593212   109.15534769   178.66413268
 H      1   2   3     1.093118224749   112.87839897    59.77144586
 H      1   2   3     1.092963570424   112.30210403   296.96728999
 H      2   1   3     1.096113197553   109.62752358   119.97440605
 H      2   1   3     1.096285494215   110.31026347   239.62558304
 H      4   3   2     1.094261546234   108.59111775   176.81885975
 H      4   3   2     1.093831869150   108.35338066   296.89067775
 H      4   3   2     1.094097916795   108.25730894    56.94981184
 H      5   3   2     1.095013561350   109.53661169   259.06450346
 H      5   3   2     1.091862643218   108.91346768    18.10398933
 H      6   5   3     1.096880430468   111.14086614    83.01495123
 H      6   5   3     1.094129060478   111.88732236   202.40372552
 H      7   6   5     1.097942827820   111.90025260   287.23668607
 H     11   9   8     1.099218685288   106.30892705    40.59726294
 H     13  12  11     1.088747909570   120.80299790   359.23213481
 H     14  13  12     1.087666841067   119.99743957   179.17918983
 H     15  14  13     1.087841071718   119.95439996   179.25009121
 H     16  15  14     1.087541131907   119.80671469   179.20879146
 H     17  16  15     1.087935038132   118.72269831   179.19630740
 H     18  11   9     1.099104046520   110.46575206    58.69028755
 H     19  18  11     1.094288032043   112.60351287   282.16809774
 H     19  18  11     1.097306909929   110.68980269    42.93956424
 H     20  19  18     1.095084321017   110.98394451   217.17237718
 H     20  19  18     1.096272420856   110.68400428    98.02714729
 H     21  20  19     1.093685869038   112.12527148   233.12647902
 H     21  20  19     1.094983212949   109.54774093   113.88044701
 H     22  21  20     1.097065988916   109.85727844   270.40280221
 H     22  21  20     1.093879326928   111.45706309   150.81182263
 H     23   7   6     1.094279847898   113.95070636   203.78402108
 H     23   7   6     1.097185968479   110.99879873    81.84326626

---------------------------
INTERNAL COORDINATES (A.U.)
---------------------------
 C      0   0   0     0.000000000000     0.00000000     0.00000000
 C      1   0   0     2.877121042788     0.00000000     0.00000000
 N      2   1   0     2.902031711805   114.43266691     0.00000000
 C      3   2   1     2.893352084830   107.79810109   174.15105114
 C      3   2   1     2.921184638873   112.54158257   294.50015034
 C      5   3   2     2.862039620691   104.89403467   137.31799864
 C      6   5   3     2.869372411917   103.42600826   324.02070155
 O      7   6   5     2.699013597806   111.83574031   161.85350217
 C      8   7   6     2.590510314491   114.46465238    81.77212029
 O      9   8   7     2.312777014735   123.47608892   355.29860666
 C      9   8   7     2.885894133578   110.42198240   173.82408851
 C     11   9   8     2.875656533250   109.58180680   282.65929523
 C     12  11   9     2.653563313119   121.16520885   296.18259150
 C     13  12  11     2.637091036993   120.56605244   179.88384659
 C     14  13  12     2.631935600222   120.06631941   359.92378320
 C     15  14  13     2.633933030043   119.95844253     0.03224965
 C     16  15  14     2.637235108299   120.12444296   359.95227474
 C     11   9   8     2.915936558913   111.31966328   157.13671214
 C     18  11   9     2.896564708593   113.83255508   181.43787987
 C     19  18  11     2.884944731914   104.77625075   160.83434774
 C     20  19  18     2.885958198701   106.19584508   338.73075964
 C     21  20  19     2.879126681177   105.87426829   355.21422244
 C      7   6   5     2.885477135030   102.10049037    44.18897287
 H      1   2   3     2.070800813083   109.15534769   178.66413268
 H      1   2   3     2.065694076773   112.87839897    59.77144586
 H      1   2   3     2.065401822454   112.30210403   296.96728999
 H      2   1   3     2.071353755152   109.62752358   119.97440605
 H      2   1   3     2.071679348657   110.31026347   239.62558304
 H      4   3   2     2.067854641264   108.59111775   176.81885975
 H      4   3   2     2.067042669248   108.35338066   296.89067775
 H      4   3   2     2.067545426437   108.25730894    56.94981184
 H      5   3   2     2.069275743882   109.53661169   259.06450346
 H      5   3   2     2.063321371541   108.91346768    18.10398933
 H      6   5   3     2.072803615242   111.14086614    83.01495123
 H      6   5   3     2.067604279467   111.88732236   202.40372552
 H      7   6   5     2.074811255282   111.90025260   287.23668607
 H     11   9   8     2.077222276484   106.30892705    40.59726294
 H     13  12  11     2.057435377967   120.80299790   359.23213481
 H     14  13  12     2.055392454563   119.99743957   179.17918983
 H     15  14  13     2.055721702778   119.95439996   179.25009121
 H     16  15  14     2.055154898680   119.80671469   179.20879146
 H     17  16  15     2.055899273567   118.72269831   179.19630740
 H     18  11   9     2.077005640607   110.46575206    58.69028755
 H     19  18  11     2.067904692188   112.60351287   282.16809774
 H     19  18  11     2.073609544625   110.68980269    42.93956424
 H     20  19  18     2.069409460273   110.98394451   217.17237718
 H     20  19  18     2.071654643589   110.68400428    98.02714729
 H     21  20  19     2.066766769022   112.12527148   233.12647902
 H     21  20  19     2.069218393715   109.54774093   113.88044701
 H     22  21  20     2.073154269891   109.85727844   270.40280221
 H     22  21  20     2.067132351452   111.45706309   150.81182263
 H     23   7   6     2.067889226396   113.95070636   203.78402108
 H     23   7   6     2.073380998407   110.99879873    81.84326626

---------------------
BASIS SET INFORMATION
---------------------
There are 4 groups of distinct atoms

 Group   1 Type C   : 7s4p1d contracted to 3s2p1d pattern {511/31/1}
 Group   2 Type N   : 7s4p1d contracted to 3s2p1d pattern {511/31/1}
 Group   3 Type O   : 7s4p1d contracted to 3s2p1d pattern {511/31/1}
 Group   4 Type H   : 4s1p contracted to 2s1p pattern {31/1}

Atom   0C    basis set group =>   1
Atom   1C    basis set group =>   1
Atom   2N    basis set group =>   2
Atom   3C    basis set group =>   1
Atom   4C    basis set group =>   1
Atom   5C    basis set group =>   1
Atom   6C    basis set group =>   1
Atom   7O    basis set group =>   3
Atom   8C    basis set group =>   1
Atom   9O    basis set group =>   3
Atom  10C    basis set group =>   1
Atom  11C    basis set group =>   1
Atom  12C    basis set group =>   1
Atom  13C    basis set group =>   1
Atom  14C    basis set group =>   1
Atom  15C    basis set group =>   1
Atom  16C    basis set group =>   1
Atom  17C    basis set group =>   1
Atom  18C    basis set group =>   1
Atom  19C    basis set group =>   1
Atom  20C    basis set group =>   1
Atom  21C    basis set group =>   1
Atom  22C    basis set group =>   1
Atom  23H    basis set group =>   4
Atom  24H    basis set group =>   4
Atom  25H    basis set group =>   4
Atom  26H    basis set group =>   4
Atom  27H    basis set group =>   4
Atom  28H    basis set group =>   4
Atom  29H    basis set group =>   4
Atom  30H    basis set group =>   4
Atom  31H    basis set group =>   4
Atom  32H    basis set group =>   4
Atom  33H    basis set group =>   4
Atom  34H    basis set group =>   4
Atom  35H    basis set group =>   4
Atom  36H    basis set group =>   4
Atom  37H    basis set group =>   4
Atom  38H    basis set group =>   4
Atom  39H    basis set group =>   4
Atom  40H    basis set group =>   4
Atom  41H    basis set group =>   4
Atom  42H    basis set group =>   4
Atom  43H    basis set group =>   4
Atom  44H    basis set group =>   4
Atom  45H    basis set group =>   4
Atom  46H    basis set group =>   4
Atom  47H    basis set group =>   4
Atom  48H    basis set group =>   4
Atom  49H    basis set group =>   4
Atom  50H    basis set group =>   4
Atom  51H    basis set group =>   4
Atom  52H    basis set group =>   4
[file orca_main/mainfcts.cpp, line 624]: Error : multiplicity (1) is odd and number of electrons (173) is odd -> impossible

