
                                 *****************
                                 * O   R   C   A *
                                 *****************

                                            #,                                       
                                            ###                                      
                                            ####                                     
                                            #####                                    
                                            ######                                   
                                           ########,                                 
                                     ,,################,,,,,                         
                               ,,#################################,,                 
                          ,,##########################################,,             
                       ,#########################################, ''#####,          
                    ,#############################################,,   '####,        
                  ,##################################################,,,,####,       
                ,###########''''           ''''###############################       
              ,#####''   ,,,,##########,,,,          '''####'''          '####       
            ,##' ,,,,###########################,,,                        '##       
           ' ,,###''''                  '''############,,,                           
         ,,##''                                '''############,,,,        ,,,,,,###''
      ,#''                                            '''#######################'''  
     '                                                          ''''####''''         
             ,#######,   #######,   ,#######,      ##                                
            ,#'     '#,  ##    ##  ,#'     '#,    #''#        ######   ,####,        
            ##       ##  ##   ,#'  ##            #'  '#       #        #'  '#        
            ##       ##  #######   ##           ,######,      #####,   #    #        
            '#,     ,#'  ##    ##  '#,     ,#' ,#      #,         ##   #,  ,#        
             '#######'   ##     ##  '#######'  #'      '#     #####' # '####'        



                  #######################################################
                  #                        -***-                        #
                  #          Department of theory and spectroscopy      #
                  #    Directorship and core code : Frank Neese         #
                  #        Max Planck Institute fuer Kohlenforschung    #
                  #                Kaiser Wilhelm Platz 1               #
                  #                 D-45470 Muelheim/Ruhr               #
                  #                      Germany                        #
                  #                                                     #
                  #                  All rights reserved                #
                  #                        -***-                        #
                  #######################################################


                         Program Version 5.0.3 -  RELEASE  -


 With contributions from (in alphabetic order):
   Daniel Aravena         : Magnetic Suceptibility
   Michael Atanasov       : Ab Initio Ligand Field Theory (pilot matlab implementation)
   Alexander A. Auer      : GIAO ZORA, VPT2 properties, NMR spectrum
   Ute Becker             : Parallelization
   Giovanni Bistoni       : ED, misc. LED, open-shell LED, HFLD
   Martin Brehm           : Molecular dynamics
   Dmytro Bykov           : SCF Hessian
   Vijay G. Chilkuri      : MRCI spin determinant printing, contributions to CSF-ICE
   Dipayan Datta          : RHF DLPNO-CCSD density
   Achintya Kumar Dutta   : EOM-CC, STEOM-CC
   Dmitry Ganyushin       : Spin-Orbit,Spin-Spin,Magnetic field MRCI
   Miquel Garcia          : C-PCM and meta-GGA Hessian, CC/C-PCM, Gaussian charge scheme
   Yang Guo               : DLPNO-NEVPT2, F12-NEVPT2, CIM, IAO-localization
   Andreas Hansen         : Spin unrestricted coupled pair/coupled cluster methods
   Benjamin Helmich-Paris : MC-RPA, TRAH-SCF, COSX integrals
   Lee Huntington         : MR-EOM, pCC
   Robert Izsak           : Overlap fitted RIJCOSX, COSX-SCS-MP3, EOM
   Marcus Kettner         : VPT2
   Christian Kollmar      : KDIIS, OOCD, Brueckner-CCSD(T), CCSD density, CASPT2, CASPT2-K
   Simone Kossmann        : Meta GGA functionals, TD-DFT gradient, OOMP2, MP2 Hessian
   Martin Krupicka        : Initial AUTO-CI
   Lucas Lang             : DCDCAS
   Marvin Lechner         : AUTO-CI (C++ implementation), FIC-MRCC
   Dagmar Lenk            : GEPOL surface, SMD
   Dimitrios Liakos       : Extrapolation schemes; Compound Job, initial MDCI parallelization
   Dimitrios Manganas     : Further ROCIS development; embedding schemes
   Dimitrios Pantazis     : SARC Basis sets
   Anastasios Papadopoulos: AUTO-CI, single reference methods and gradients
   Taras Petrenko         : DFT Hessian,TD-DFT gradient, ASA, ECA, R-Raman, ABS, FL, XAS/XES, NRVS
   Peter Pinski           : DLPNO-MP2, DLPNO-MP2 Gradient
   Christoph Reimann      : Effective Core Potentials
   Marius Retegan         : Local ZFS, SOC
   Christoph Riplinger    : Optimizer, TS searches, QM/MM, DLPNO-CCSD(T), (RO)-DLPNO pert. Triples
   Tobias Risthaus        : Range-separated hybrids, TD-DFT gradient, RPA, STAB
   Michael Roemelt        : Original ROCIS implementation
   Masaaki Saitow         : Open-shell DLPNO-CCSD energy and density
   Barbara Sandhoefer     : DKH picture change effects
   Avijit Sen             : IP-ROCIS
   Kantharuban Sivalingam : CASSCF convergence, NEVPT2, FIC-MRCI
   Bernardo de Souza      : ESD, SOC TD-DFT
   Georgi Stoychev        : AutoAux, RI-MP2 NMR, DLPNO-MP2 response
   Willem Van den Heuvel  : Paramagnetic NMR
   Boris Wezisla          : Elementary symmetry handling
   Frank Wennmohs         : Technical directorship


 We gratefully acknowledge several colleagues who have allowed us to
 interface, adapt or use parts of their codes:
   Stefan Grimme, W. Hujo, H. Kruse, P. Pracht,  : VdW corrections, initial TS optimization,
                  C. Bannwarth, S. Ehlert          DFT functionals, gCP, sTDA/sTD-DF
   Ed Valeev, F. Pavosevic, A. Kumar             : LibInt (2-el integral package), F12 methods
   Garnet Chan, S. Sharma, J. Yang, R. Olivares  : DMRG
   Ulf Ekstrom                                   : XCFun DFT Library
   Mihaly Kallay                                 : mrcc  (arbitrary order and MRCC methods)
   Jiri Pittner, Ondrej Demel                    : Mk-CCSD
   Frank Weinhold                                : gennbo (NPA and NBO analysis)
   Christopher J. Cramer and Donald G. Truhlar   : smd solvation model
   Lars Goerigk                                  : TD-DFT with DH, B97 family of functionals
   V. Asgeirsson, H. Jonsson                     : NEB implementation
   FAccTs GmbH                                   : IRC, NEB, NEB-TS, DLPNO-Multilevel, CI-OPT
                                                   MM, QMMM, 2- and 3-layer-ONIOM, Crystal-QMMM,
                                                   LR-CPCM, SF, NACMEs, symmetry and pop. for TD-DFT,
                                                   nearIR, NL-DFT gradient (VV10), updates on ESD,
                                                   ML-optimized integration grids
   S Lehtola, MJT Oliveira, MAL Marques          : LibXC Library
   Liviu Ungur et al                             : ANISO software


 Your calculation uses the libint2 library for the computation of 2-el integrals
 For citations please refer to: http://libint.valeyev.net

 Your ORCA version has been built with support for libXC version: 5.1.0
 For citations please refer to: https://tddft.org/programs/libxc/

 This ORCA versions uses:
   CBLAS   interface :  Fast vector & matrix operations
   LAPACKE interface :  Fast linear algebra routines
   SCALAPACK package :  Parallel linear algebra routines
   Shared memory     :  Shared parallel matrices
   BLAS/LAPACK       :  OpenBLAS 0.3.15  USE64BITINT DYNAMIC_ARCH NO_AFFINITY Zen SINGLE_THREADED
        Core in use  :  Zen
   Copyright (c) 2011-2014, The OpenBLAS Project


================================================================================

----- Orbital basis set information -----
Your calculation utilizes the basis: def2-SVP
   F. Weigend and R. Ahlrichs, Phys. Chem. Chem. Phys. 7, 3297 (2005).

================================================================================
                                        WARNINGS
                       Please study these warnings very carefully!
================================================================================


INFO   : the flag for use of the SHARK integral package has been found!

================================================================================
                                       INPUT FILE
================================================================================
NAME = ./ZINC000000000165/ZINC000000000165.inp
|  1> !RHF def2-SVP TightSCF PAL16 
|  2> *xyz 0 1
|  3> C -3.5893162093868267 -1.383148877014968 1.2412957966502667
|  4> C -3.0813008583936607 -0.19616319699350102 0.42025416327603776
|  5> C -3.5900253724354014 -0.282139012277491 -1.0114181019839972
|  6> O -2.932739218601727 -0.3753300274379128 -2.03506029019511
|  7> O -4.937163665826837 -0.22174658896268204 -1.085089473251327
|  8> C -1.563956402838618 -0.07275701525846792 0.5034996259717566
|  9> C -0.9858972008581876 1.1002361449763038 1.0135899337590577
| 10> C 0.4017920135566091 1.2319636014065465 1.0931769093404653
| 11> C 1.2305655851179607 0.19304801735610647 0.6515303366539189
| 12> C 2.6896236294674596 0.39542523761437626 0.7537433754354542
| 13> O 3.146634433444522 0.4570980867440291 1.8947339229176088
| 14> C 3.456517864176554 0.5663236505062268 -0.4734180956860741
| 15> C 3.0249982621843574 0.7119445250692876 -1.7811422712447023
| 16> C 4.104610233987025 0.8562940931697326 -2.701996363173412
| 17> C 5.326499125183129 0.8246266913969872 -2.071043452456086
| 18> S 5.169794549729356 0.6254133191917282 -0.38180277178845434
| 19> C 0.6738395635220612 -0.9900262692484219 0.16250638892483477
| 20> Cl 1.6353686430089722 -2.3345248099686273 -0.33478637724422916
| 21> C -0.7175116972825759 -1.1156190654497111 0.08372918161298254
| 22> H -3.209336239270586 -1.3451312330855105 2.268188358635237
| 23> H -3.2869398248461192 -2.340748268510436 0.8028435400030604
| 24> H -4.683789339030923 -1.3846234507775101 1.2905620570639587
| 25> H -3.5174440438564143 0.7202518593316587 0.8406037538039515
| 26> H -5.12568965460283 -0.2749664443129494 -2.04626441197656
| 27> H -1.6108793542821425 1.9226949533456519 1.3584817311188646
| 28> H 0.8363955343472084 2.1428536315793476 1.501112158808537
| 29> H 1.9835203787134073 0.7148589803012254 -2.0808004017507566
| 30> H 3.989184555702703 0.9773438852695691 -3.772322136985967
| 31> H 6.30721208548439 0.9104275319821673 -2.5187405120246917
| 32> H -1.1445673761122421 -2.033879949942258 -0.3166041429437308
| 33> *
| 34> 
| 35>                          ****END OF INPUT****
================================================================================

                       ****************************
                       * Single Point Calculation *
                       ****************************

---------------------------------
CARTESIAN COORDINATES (ANGSTROEM)
---------------------------------
  C     -3.589316   -1.383149    1.241296
  C     -3.081301   -0.196163    0.420254
  C     -3.590025   -0.282139   -1.011418
  O     -2.932739   -0.375330   -2.035060
  O     -4.937164   -0.221747   -1.085089
  C     -1.563956   -0.072757    0.503500
  C     -0.985897    1.100236    1.013590
  C      0.401792    1.231964    1.093177
  C      1.230566    0.193048    0.651530
  C      2.689624    0.395425    0.753743
  O      3.146634    0.457098    1.894734
  C      3.456518    0.566324   -0.473418
  C      3.024998    0.711945   -1.781142
  C      4.104610    0.856294   -2.701996
  C      5.326499    0.824627   -2.071043
  S      5.169795    0.625413   -0.381803
  C      0.673840   -0.990026    0.162506
  Cl     1.635369   -2.334525   -0.334786
  C     -0.717512   -1.115619    0.083729
  H     -3.209336   -1.345131    2.268188
  H     -3.286940   -2.340748    0.802844
  H     -4.683789   -1.384623    1.290562
  H     -3.517444    0.720252    0.840604
  H     -5.125690   -0.274966   -2.046264
  H     -1.610879    1.922695    1.358482
  H      0.836396    2.142854    1.501112
  H      1.983520    0.714859   -2.080800
  H      3.989185    0.977344   -3.772322
  H      6.307212    0.910428   -2.518741
  H     -1.144567   -2.033880   -0.316604

----------------------------
CARTESIAN COORDINATES (A.U.)
----------------------------
  NO LB      ZA    FRAG     MASS         X           Y           Z
   0 C     6.0000    0    12.011   -6.782825   -2.613773    2.345709
   1 C     6.0000    0    12.011   -5.822815   -0.370695    0.794165
   2 C     6.0000    0    12.011   -6.784165   -0.533165   -1.911303
   3 O     8.0000    0    15.999   -5.542074   -0.709271   -3.845707
   4 O     8.0000    0    15.999   -9.329887   -0.419040   -2.050522
   5 C     6.0000    0    12.011   -2.955449   -0.137491    0.951476
   6 C     6.0000    0    12.011   -1.863076    2.079145    1.915407
   7 C     6.0000    0    12.011    0.759277    2.328074    2.065805
   8 C     6.0000    0    12.011    2.325432    0.364808    1.231214
   9 C     6.0000    0    12.011    5.082652    0.747245    1.424369
  10 O     8.0000    0    15.999    5.946277    0.863790    3.580528
  11 C     6.0000    0    12.011    6.531872    1.070197   -0.894631
  12 C     6.0000    0    12.011    5.716418    1.345380   -3.365871
  13 C     6.0000    0    12.011    7.756589    1.618161   -5.106033
  14 C     6.0000    0    12.011   10.065625    1.558319   -3.913705
  15 S    16.0000    0    32.060    9.769496    1.181860   -0.721503
  16 C     6.0000    0    12.011    1.273372   -1.870879    0.307093
  17 Cl   17.0000    0    35.453    3.090399   -4.411613   -0.632655
  18 C     6.0000    0    12.011   -1.355901   -2.108215    0.158225
  19 H     1.0000    0     1.008   -6.064767   -2.541930    4.286255
  20 H     1.0000    0     1.008   -6.211416   -4.423373    1.517154
  21 H     1.0000    0     1.008   -8.851079   -2.616559    2.438809
  22 H     1.0000    0     1.008   -6.647006    1.361079    1.588511
  23 H     1.0000    0     1.008   -9.686150   -0.519611   -3.866879
  24 H     1.0000    0     1.008   -3.044121    3.633367    2.567158
  25 H     1.0000    0     1.008    1.580558    4.049407    2.836691
  26 H     1.0000    0     1.008    3.748310    1.350888   -3.932143
  27 H     1.0000    0     1.008    7.538466    1.846912   -7.128656
  28 H     1.0000    0     1.008   11.918904    1.720459   -4.759730
  29 H     1.0000    0     1.008   -2.162919   -3.843476   -0.598295

--------------------------------
INTERNAL COORDINATES (ANGSTROEM)
--------------------------------
 C      0   0   0     0.000000000000     0.00000000     0.00000000
 C      1   0   0     1.530073189476     0.00000000     0.00000000
 C      2   1   0     1.521800889445   110.48750561     0.00000000
 O      3   2   1     1.220062696263   127.84589530   241.31247496
 O      3   2   1     1.350502238895   112.47326631    62.40107954
 C      2   1   3     1.524628836653   111.34159081   233.74316895
 C      6   2   1     1.403658618415   119.82403515   239.59053613
 C      7   6   2     1.396197538052   120.58868627   180.20006396
 C      8   7   6     1.400450969819   120.01434832     0.54182056
 C      9   8   7     1.476568461453   117.46881632   179.62240244
 O     10   9   8     1.230659109874   115.97626618    66.98665043
 C     10   9   8     1.457140456841   118.54418620   249.76073449
 C     12  10   9     1.384758869028   130.06437837     7.56591591
 C     13  12  10     1.426313803513   112.61092846   179.94065773
 C     14  13  12     1.375542388408   111.95647214   359.64533976
 S     15  14  13     1.708149984298   112.01253015   359.88965239
 C      9   8   7     1.395977454044   120.20974178   358.36332914
 Cl    17   9   8     1.726127049780   122.60792645   182.66345645
 C     17   9   8     1.399227547539   119.49544798     1.70228074
 H      1   2   3     1.095599585980   111.15421979   178.61714041
 H      1   2   3     1.095750178590   111.81583613    57.78344384
 H      1   2   3     1.095582388639   110.90737660   298.43127202
 H      2   1   3     1.098513182416   108.06030164   115.46390810
 H      5   3   2     0.980934077439   104.04817459   179.27991701
 H      7   6   2     1.089032384940   120.65453535     0.45923838
 H      8   7   6     1.088582580749   119.80917643   180.67308609
 H     13  12  10     1.083734132980   124.11641141   359.81591454
 H     14  13  12     1.083315928740   124.64819429   179.66056758
 H     15  14  13     1.081476930819   127.86623573   179.99980266
 H     19  17   9     1.088965736633   119.10060470   178.83474458

---------------------------
INTERNAL COORDINATES (A.U.)
---------------------------
 C      0   0   0     0.000000000000     0.00000000     0.00000000
 C      1   0   0     2.891419292966     0.00000000     0.00000000
 C      2   1   0     2.875786911409   110.48750561     0.00000000
 O      3   2   1     2.305584362152   127.84589530   241.31247496
 O      3   2   1     2.552079374759   112.47326631    62.40107954
 C      2   1   3     2.881130957153   111.34159081   233.74316895
 C      6   2   1     2.652530374322   119.82403515   239.59053613
 C      7   6   2     2.638430975774   120.58868627   180.20006396
 C      8   7   6     2.646468796942   120.01434832     0.54182056
 C      9   8   7     2.790310010131   117.46881632   179.62240244
 O     10   9   8     2.325608681877   115.97626618    66.98665043
 C     10   9   8     2.753596402087   118.54418620   249.76073449
 C     12  10   9     2.616815023982   130.06437837     7.56591591
 C     13  12  10     2.695342469672   112.61092846   179.94065773
 C     14  13  12     2.599398399690   111.95647214   359.64533976
 S     15  14  13     3.227935665984   112.01253015   359.88965239
 C      9   8   7     2.638015077272   120.20974178   358.36332914
 Cl    17   9   8     3.261907396437   122.60792645   182.66345645
 C     17   9   8     2.644156863887   119.49544798     1.70228074
 H      1   2   3     2.070383169940   111.15421979   178.61714041
 H      1   2   3     2.070667748730   111.81583613    57.78344384
 H      1   2   3     2.070350671675   110.90737660   298.43127202
 H      2   1   3     2.075889069269   108.06030164   115.46390810
 H      5   3   2     1.853696761790   104.04817459   179.27991701
 H      7   6   2     2.057972958508   120.65453535     0.45923838
 H      8   7   6     2.057122951773   119.80917643   180.67308609
 H     13  12  10     2.047960713316   124.11641141   359.81591454
 H     14  13  12     2.047170421834   124.64819429   179.66056758
 H     15  14  13     2.043695219402   127.86623573   179.99980266
 H     19  17   9     2.057847011460   119.10060470   178.83474458

---------------------
BASIS SET INFORMATION
---------------------
There are 5 groups of distinct atoms

 Group   1 Type C   : 7s4p1d contracted to 3s2p1d pattern {511/31/1}
 Group   2 Type O   : 7s4p1d contracted to 3s2p1d pattern {511/31/1}
 Group   3 Type S   : 10s7p1d contracted to 4s3p1d pattern {5311/511/1}
 Group   4 Type Cl  : 10s7p1d contracted to 4s3p1d pattern {5311/511/1}
 Group   5 Type H   : 4s1p contracted to 2s1p pattern {31/1}

Atom   0C    basis set group =>   1
Atom   1C    basis set group =>   1
Atom   2C    basis set group =>   1
Atom   3O    basis set group =>   2
Atom   4O    basis set group =>   2
Atom   5C    basis set group =>   1
Atom   6C    basis set group =>   1
Atom   7C    basis set group =>   1
Atom   8C    basis set group =>   1
Atom   9C    basis set group =>   1
Atom  10O    basis set group =>   2
Atom  11C    basis set group =>   1
Atom  12C    basis set group =>   1
Atom  13C    basis set group =>   1
Atom  14C    basis set group =>   1
Atom  15S    basis set group =>   3
Atom  16C    basis set group =>   1
Atom  17Cl   basis set group =>   4
Atom  18C    basis set group =>   1
Atom  19H    basis set group =>   5
Atom  20H    basis set group =>   5
Atom  21H    basis set group =>   5
Atom  22H    basis set group =>   5
Atom  23H    basis set group =>   5
Atom  24H    basis set group =>   5
Atom  25H    basis set group =>   5
Atom  26H    basis set group =>   5
Atom  27H    basis set group =>   5
Atom  28H    basis set group =>   5
Atom  29H    basis set group =>   5


           ************************************************************
           *        Program running with 16 parallel MPI-processes    *
           *              working on a common directory               *
           ************************************************************
------------------------------------------------------------------------------
                           ORCA GTO INTEGRAL CALCULATION
------------------------------------------------------------------------------
------------------------------------------------------------------------------
                   ___                                                        
                  /   \      - P O W E R E D   B Y -                         
                 /     \                                                     
                 |  |  |   _    _      __       _____    __    __             
                 |  |  |  | |  | |    /  \     |  _  \  |  |  /  |          
                  \  \/   | |  | |   /    \    | | | |  |  | /  /          
                 / \  \   | |__| |  /  /\  \   | |_| |  |  |/  /          
                |  |  |   |  __  | /  /__\  \  |    /   |      \           
                |  |  |   | |  | | |   __   |  |    \   |  |\   \          
                \     /   | |  | | |  |  |  |  | |\  \  |  | \   \       
                 \___/    |_|  |_| |__|  |__|  |_| \__\ |__|  \__/        
                                                                              
                      - O R C A' S   B I G   F R I E N D -                    
                                      &                                       
                       - I N T E G R A L  F E E D E R -                       
                                                                              
 v1 FN, 2020, v2 2021                                                         
------------------------------------------------------------------------------


Reading SHARK input file ./ZINC000000000165/ZINC000000000165.SHARKINP.tmp ... ok
----------------------
SHARK INTEGRAL PACKAGE
----------------------

Number of atoms                             ...     30
Number of basis functions                   ...    329
Number of shells                            ...    151
Maximum angular momentum                    ...      2
Integral batch strategy                     ... SHARK/LIBINT Hybrid
RI-J (if used) integral strategy            ... SPLIT-RIJ (Revised 2003 algorithm where possible)
Printlevel                                  ...      1
Contraction scheme used                     ... SEGMENTED contraction
Coulomb Range Separation                    ... NOT USED
Exchange Range Separation                   ... NOT USED
Finite Nucleus Model                        ... NOT USED
Auxiliary Coulomb fitting basis             ... NOT available
Auxiliary J/K fitting basis                 ... NOT available
Auxiliary Correlation fitting basis         ... NOT available
Auxiliary 'external' fitting basis          ... NOT available
Integral threshold                          ...     2.500000e-11
Primitive cut-off                           ...     2.500000e-12
Primitive pair pre-selection threshold      ...     2.500000e-12

Calculating pre-screening integrals         ... done (  0.0 sec) Dimension = 151
Organizing shell pair data                  ... done (  0.0 sec)
Shell pair information
Total number of shell pairs                 ...     11476
Shell pairs after pre-screening             ...      8364
Total number of primitive shell pairs       ...     43960
Primitive shell pairs kept                  ...     20523
          la=0 lb=0:   2434 shell pairs
          la=1 lb=0:   3078 shell pairs
          la=1 lb=1:   1008 shell pairs
          la=2 lb=0:   1045 shell pairs
          la=2 lb=1:    680 shell pairs
          la=2 lb=2:    119 shell pairs

Calculating one electron integrals          ... done (  0.0 sec)
Calculating Nuclear repulsion               ... done (  0.0 sec) ENN=   1595.745689745035 Eh

SHARK setup successfully completed in   0.2 seconds

Maximum memory used throughout the entire GTOINT-calculation: 14.4 MB


           ************************************************************
           *        Program running with 16 parallel MPI-processes    *
           *              working on a common directory               *
           ************************************************************
-------------------------------------------------------------------------------
                                 ORCA SCF
-------------------------------------------------------------------------------

------------
SCF SETTINGS
------------
Hamiltonian:
 Ab initio Hamiltonian  Method          .... Hartree-Fock(GTOs)


General Settings:
 Integral files         IntName         .... ./ZINC000000000165/ZINC000000000165
 Hartree-Fock type      HFTyp           .... RHF
 Total Charge           Charge          ....    0
 Multiplicity           Mult            ....    1
 Number of Electrons    NEL             ....  152
 Basis Dimension        Dim             ....  329
 Nuclear Repulsion      ENuc            ....   1595.7456897450 Eh

Convergence Acceleration:
 DIIS                   CNVDIIS         .... on
   Start iteration      DIISMaxIt       ....    12
   Startup error        DIISStart       ....  0.200000
   # of expansion vecs  DIISMaxEq       ....     5
   Bias factor          DIISBfac        ....   1.050
   Max. coefficient     DIISMaxC        ....  10.000
 Trust-Rad. Augm. Hess. CNVTRAH         .... auto
   Auto Start mean grad. ratio tolernc. ....  1.125000
   Auto Start start iteration           ....    20
   Auto Start num. interpolation iter.  ....    10
   Max. Number of Micro iterations      ....    16
   Max. Number of Macro iterations      .... Maxiter - #DIIS iter
   Number of Davidson start vectors     ....     2
   Converg. threshold I  (grad. norm)   ....   1.000e-05
   Converg. threshold II (energy diff.) ....   1.000e-08
   Grad. Scal. Fac. for Micro threshold ....   0.100
   Minimum threshold for Micro iter.    ....   0.010
   NR start threshold (gradient norm)   ....   0.001
   Initial trust radius                 ....   0.400
   Minimum AH scaling param. (alpha)    ....   1.000
   Maximum AH scaling param. (alpha)    .... 1000.000
   Orbital update algorithm             .... Taylor
   White noise on init. David. guess    .... on
   Maximum white noise                  ....   0.010
   Quad. conv. algorithm                .... NR
 SOSCF                  CNVSOSCF        .... on
   Start iteration      SOSCFMaxIt      ....   150
   Startup grad/error   SOSCFStart      ....  0.003300
 Level Shifting         CNVShift        .... on
   Level shift para.    LevelShift      ....    0.2500
   Turn off err/grad.   ShiftErr        ....    0.0010
 Zerner damping         CNVZerner       .... off
 Static damping         CNVDamp         .... on
   Fraction old density DampFac         ....    0.7000
   Max. Damping (<1)    DampMax         ....    0.9800
   Min. Damping (>=0)   DampMin         ....    0.0000
   Turn off err/grad.   DampErr         ....    0.1000
 Fernandez-Rico         CNVRico         .... off

SCF Procedure:
 Maximum # iterations   MaxIter         ....   125
 SCF integral mode      SCFMode         .... Direct
   Integral package                     .... SHARK and LIBINT hybrid scheme
 Reset frequency        DirectResetFreq ....    20
 Integral Threshold     Thresh          ....  2.500e-11 Eh
 Primitive CutOff       TCut            ....  2.500e-12 Eh

Convergence Tolerance:
 Convergence Check Mode ConvCheckMode   .... Total+1el-Energy
 Convergence forced     ConvForced      .... 0
 Energy Change          TolE            ....  1.000e-08 Eh
 1-El. energy change                    ....  1.000e-05 Eh
 Orbital Gradient       TolG            ....  1.000e-05
 Orbital Rotation angle TolX            ....  1.000e-05
 DIIS Error             TolErr          ....  5.000e-07


Diagonalization of the overlap matrix:
Smallest eigenvalue                        ... 2.293e-04
Time for diagonalization                   ...    0.012 sec
Threshold for overlap eigenvalues          ... 1.000e-08
Number of eigenvalues below threshold      ... 0
Time for construction of square roots      ...    0.007 sec
Total time needed                          ...    0.020 sec

Time for model grid setup =    0.128 sec

------------------------------
INITIAL GUESS: MODEL POTENTIAL
------------------------------
Loading Hartree-Fock densities                     ... done
Calculating cut-offs                               ... done
Initializing the effective Hamiltonian             ... done
Setting up the integral package (SHARK)            ... done
Starting the Coulomb interaction                   ... done (   0.0 sec)
Reading the grid                                   ... done
Mapping shells                                     ... done
Starting the XC term evaluation                    ... done (   0.0 sec)
Transforming the Hamiltonian                       ... done (   0.0 sec)
Diagonalizing the Hamiltonian                      ... done (   0.0 sec)
Back transforming the eigenvectors                 ... done (   0.0 sec)
Now organizing SCF variables                       ... done
                      ------------------
                      INITIAL GUESS DONE (   0.2 sec)
                      ------------------
--------------
SCF ITERATIONS
--------------
ITER       Energy         Delta-E        Max-DP      RMS-DP      [F,P]     Damp
               ***  Starting incremental Fock matrix formation  ***
  0  -1616.6824861133   0.000000000000 0.06683879  0.00196446  0.2601324 0.7000
  1  -1616.9082780145  -0.225791901126 0.05274409  0.00153811  0.1587375 0.7000
                               ***Turning on DIIS***
  2  -1617.0428872362  -0.134609221744 0.12746445  0.00353066  0.0900766 0.0000
  3  -1616.1704977647   0.872389471545 0.05213387  0.00093333  0.0527676 0.0000
  4  -1617.3894964577  -1.218998693015 0.01286950  0.00035763  0.0093673 0.0000
  5  -1617.3449584186   0.044538039060 0.00841130  0.00017268  0.0059385 0.0000
  6  -1617.3109843236   0.033974094988 0.00670404  0.00010428  0.0029594 0.0000
                      *** Initiating the SOSCF procedure ***
                           *** Shutting down DIIS ***
                      *** Re-Reading the Fockian *** 
                      *** Removing any level shift *** 
ITER      Energy       Delta-E        Grad      Rot      Max-DP    RMS-DP
  7  -1617.33606664  -0.0250823145  0.003144  0.003144  0.005302  0.000068
               *** Restarting incremental Fock matrix formation ***
  8  -1617.32746378   0.0086028610  0.001262  0.003020  0.003697  0.000035
  9  -1617.32749965  -0.0000358708  0.000727  0.004715  0.005712  0.000062
 10  -1617.32751859  -0.0000189382  0.000176  0.000372  0.000673  0.000010
 11  -1617.32751980  -0.0000012186  0.000075  0.000151  0.000246  0.000004
 12  -1617.32752006  -0.0000002526  0.000015  0.000036  0.000049  0.000001
 13  -1617.32752008  -0.0000000267  0.000012  0.000042  0.000034  0.000001
 14  -1617.32752009  -0.0000000083  0.000007  0.000027  0.000018  0.000000
                  ***Gradient check signals convergence***
              ***Rediagonalizing the Fockian in SOSCF/NRSCF***

               *****************************************************
               *                     SUCCESS                       *
               *           SCF CONVERGED AFTER  15 CYCLES          *
               *****************************************************


----------------
TOTAL SCF ENERGY
----------------

Total Energy       :        -1617.32752009 Eh          -44009.71923 eV

Components:
Nuclear Repulsion  :         1595.74568975 Eh           43422.44777 eV
Electronic Energy  :        -3213.07320984 Eh          -87432.16701 eV
One Electron Energy:        -5394.79307202 Eh         -146799.78265 eV
Two Electron Energy:         2181.71986218 Eh           59367.61564 eV

Virial components:
Potential Energy   :        -3231.24023745 Eh          -87926.51696 eV
Kinetic Energy     :         1613.91271736 Eh           43916.79773 eV
Virial Ratio       :            2.00211585


---------------
SCF CONVERGENCE
---------------

  Last Energy change         ...   -1.5766e-09  Tolerance :   1.0000e-08
  Last MAX-Density change    ...    5.9261e-06  Tolerance :   1.0000e-07
  Last RMS-Density change    ...    1.4846e-07  Tolerance :   5.0000e-09
  Last Orbital Gradient      ...    1.8200e-06  Tolerance :   1.0000e-05
  Last Orbital Rotation      ...    5.7172e-06  Tolerance :   1.0000e-05

             **** THE GBW FILE WAS UPDATED (./ZINC000000000165/ZINC000000000165.gbw) ****
             **** DENSITY ./ZINC000000000165/ZINC000000000165.scfp WAS UPDATED ****
             **** ENERGY FILE WAS UPDATED (./ZINC000000000165/ZINC000000000165.en.tmp) ****
             **** THE GBW FILE WAS UPDATED (./ZINC000000000165/ZINC000000000165.gbw) ****
             **** DENSITY ./ZINC000000000165/ZINC000000000165.scfp WAS UPDATED ****
----------------
ORBITAL ENERGIES
----------------

  NO   OCC          E(Eh)            E(eV) 
   0   2.0000    -104.804327     -2851.8707 
   1   2.0000     -91.958466     -2502.3171 
   2   2.0000     -20.618165      -561.0488 
   3   2.0000     -20.555795      -559.3516 
   4   2.0000     -20.545694      -559.0768 
   5   2.0000     -11.403176      -310.2962 
   6   2.0000     -11.348974      -308.8213 
   7   2.0000     -11.314749      -307.8900 
   8   2.0000     -11.283833      -307.0487 
   9   2.0000     -11.279545      -306.9320 
  10   2.0000     -11.272585      -306.7426 
  11   2.0000     -11.271115      -306.7026 
  12   2.0000     -11.269259      -306.6521 
  13   2.0000     -11.264707      -306.5283 
  14   2.0000     -11.263523      -306.4961 
  15   2.0000     -11.262324      -306.4634 
  16   2.0000     -11.259167      -306.3775 
  17   2.0000     -11.254101      -306.2397 
  18   2.0000     -11.251491      -306.1686 
  19   2.0000     -10.567890      -287.5669 
  20   2.0000      -8.994887      -244.7633 
  21   2.0000      -8.042990      -218.8609 
  22   2.0000      -8.039369      -218.7624 
  23   2.0000      -8.039280      -218.7599 
  24   2.0000      -6.682240      -181.8330 
  25   2.0000      -6.681188      -181.8044 
  26   2.0000      -6.679520      -181.7590 
  27   2.0000      -1.460280       -39.7362 
  28   2.0000      -1.370559       -37.2948 
  29   2.0000      -1.345371       -36.6094 
  30   2.0000      -1.198277       -32.6068 
  31   2.0000      -1.183865       -32.2146 
  32   2.0000      -1.136479       -30.9252 
  33   2.0000      -1.094317       -29.7779 
  34   2.0000      -1.036961       -28.2171 
  35   2.0000      -1.006964       -27.4009 
  36   2.0000      -0.998438       -27.1689 
  37   2.0000      -0.993108       -27.0238 
  38   2.0000      -0.917806       -24.9748 
  39   2.0000      -0.886979       -24.1359 
  40   2.0000      -0.841602       -22.9011 
  41   2.0000      -0.830767       -22.6063 
  42   2.0000      -0.787574       -21.4310 
  43   2.0000      -0.769512       -20.9395 
  44   2.0000      -0.743380       -20.2284 
  45   2.0000      -0.720529       -19.6066 
  46   2.0000      -0.712246       -19.3812 
  47   2.0000      -0.708376       -19.2759 
  48   2.0000      -0.679994       -18.5036 
  49   2.0000      -0.655593       -17.8396 
  50   2.0000      -0.648858       -17.6563 
  51   2.0000      -0.640766       -17.4361 
  52   2.0000      -0.622809       -16.9475 
  53   2.0000      -0.615925       -16.7602 
  54   2.0000      -0.608457       -16.5569 
  55   2.0000      -0.600786       -16.3482 
  56   2.0000      -0.587016       -15.9735 
  57   2.0000      -0.576046       -15.6750 
  58   2.0000      -0.564142       -15.3511 
  59   2.0000      -0.563568       -15.3355 
  60   2.0000      -0.549580       -14.9548 
  61   2.0000      -0.542116       -14.7517 
  62   2.0000      -0.534689       -14.5496 
  63   2.0000      -0.520767       -14.1708 
  64   2.0000      -0.516606       -14.0576 
  65   2.0000      -0.499664       -13.5965 
  66   2.0000      -0.488728       -13.2990 
  67   2.0000      -0.486948       -13.2505 
  68   2.0000      -0.473489       -12.8843 
  69   2.0000      -0.461776       -12.5656 
  70   2.0000      -0.460006       -12.5174 
  71   2.0000      -0.432893       -11.7796 
  72   2.0000      -0.356731        -9.7071 
  73   2.0000      -0.351235        -9.5576 
  74   2.0000      -0.344463        -9.3733 
  75   2.0000      -0.341256        -9.2861 
  76   0.0000       0.061574         1.6755 
  77   0.0000       0.103824         2.8252 
  78   0.0000       0.110958         3.0193 
  79   0.0000       0.149849         4.0776 
  80   0.0000       0.175225         4.7681 
  81   0.0000       0.179005         4.8710 
  82   0.0000       0.185192         5.0393 
  83   0.0000       0.191055         5.1989 
  84   0.0000       0.193815         5.2740 
  85   0.0000       0.209218         5.6931 
  86   0.0000       0.213261         5.8031 
  87   0.0000       0.225866         6.1461 
  88   0.0000       0.235222         6.4007 
  89   0.0000       0.245034         6.6677 
  90   0.0000       0.252029         6.8581 
  91   0.0000       0.255643         6.9564 
  92   0.0000       0.257102         6.9961 
  93   0.0000       0.279006         7.5921 
  94   0.0000       0.301450         8.2029 
  95   0.0000       0.308036         8.3821 
  96   0.0000       0.326904         8.8955 
  97   0.0000       0.336491         9.1564 
  98   0.0000       0.364280         9.9125 
  99   0.0000       0.389673        10.6035 
 100   0.0000       0.408270        11.1096 
 101   0.0000       0.415013        11.2931 
 102   0.0000       0.431334        11.7372 
 103   0.0000       0.441812        12.0223 
 104   0.0000       0.446563        12.1516 
 105   0.0000       0.454689        12.3727 
 106   0.0000       0.461579        12.5602 
 107   0.0000       0.471976        12.8431 
 108   0.0000       0.478423        13.0186 
 109   0.0000       0.487881        13.2759 
 110   0.0000       0.512860        13.9556 
 111   0.0000       0.531224        14.4553 
 112   0.0000       0.538008        14.6399 
 113   0.0000       0.551167        14.9980 
 114   0.0000       0.567007        15.4290 
 115   0.0000       0.575044        15.6477 
 116   0.0000       0.579916        15.7803 
 117   0.0000       0.590597        16.0710 
 118   0.0000       0.600938        16.3524 
 119   0.0000       0.617609        16.8060 
 120   0.0000       0.627261        17.0686 
 121   0.0000       0.638774        17.3819 
 122   0.0000       0.646183        17.5835 
 123   0.0000       0.658350        17.9146 
 124   0.0000       0.676166        18.3994 
 125   0.0000       0.685294        18.6478 
 126   0.0000       0.689710        18.7680 
 127   0.0000       0.698144        18.9975 
 128   0.0000       0.709979        19.3195 
 129   0.0000       0.724097        19.7037 
 130   0.0000       0.738365        20.0919 
 131   0.0000       0.748418        20.3655 
 132   0.0000       0.753553        20.5052 
 133   0.0000       0.761681        20.7264 
 134   0.0000       0.767781        20.8924 
 135   0.0000       0.776603        21.1324 
 136   0.0000       0.791773        21.5452 
 137   0.0000       0.806550        21.9473 
 138   0.0000       0.822783        22.3891 
 139   0.0000       0.823984        22.4218 
 140   0.0000       0.832417        22.6512 
 141   0.0000       0.833705        22.6863 
 142   0.0000       0.837742        22.7961 
 143   0.0000       0.845074        22.9956 
 144   0.0000       0.853097        23.2139 
 145   0.0000       0.861626        23.4460 
 146   0.0000       0.866594        23.5812 
 147   0.0000       0.878507        23.9054 
 148   0.0000       0.883554        24.0427 
 149   0.0000       0.886901        24.1338 
 150   0.0000       0.894448        24.3392 
 151   0.0000       0.898638        24.4532 
 152   0.0000       0.904111        24.6021 
 153   0.0000       0.907910        24.7055 
 154   0.0000       0.916157        24.9299 
 155   0.0000       0.920888        25.0586 
 156   0.0000       0.922814        25.1110 
 157   0.0000       0.928088        25.2545 
 158   0.0000       0.932586        25.3769 
 159   0.0000       0.938424        25.5358 
 160   0.0000       0.953726        25.9522 
 161   0.0000       0.962564        26.1927 
 162   0.0000       0.972257        26.4565 
 163   0.0000       0.974224        26.5100 
 164   0.0000       0.989088        26.9145 
 165   0.0000       0.992743        27.0139 
 166   0.0000       1.003981        27.3197 
 167   0.0000       1.009733        27.4762 
 168   0.0000       1.019340        27.7376 
 169   0.0000       1.030439        28.0397 
 170   0.0000       1.040266        28.3071 
 171   0.0000       1.048069        28.5194 
 172   0.0000       1.060526        28.8584 
 173   0.0000       1.075378        29.2625 
 174   0.0000       1.083416        29.4812 
 175   0.0000       1.104812        30.0635 
 176   0.0000       1.107556        30.1381 
 177   0.0000       1.113675        30.3046 
 178   0.0000       1.124643        30.6031 
 179   0.0000       1.137094        30.9419 
 180   0.0000       1.157524        31.4978 
 181   0.0000       1.163022        31.6474 
 182   0.0000       1.169539        31.8248 
 183   0.0000       1.192121        32.4393 
 184   0.0000       1.207088        32.8465 
 185   0.0000       1.230650        33.4877 
 186   0.0000       1.235762        33.6268 
 187   0.0000       1.240332        33.7511 
 188   0.0000       1.270342        34.5678 
 189   0.0000       1.292661        35.1751 
 190   0.0000       1.302584        35.4451 
 191   0.0000       1.327760        36.1302 
 192   0.0000       1.362998        37.0890 
 193   0.0000       1.384334        37.6696 
 194   0.0000       1.392226        37.8844 
 195   0.0000       1.407278        38.2940 
 196   0.0000       1.413243        38.4563 
 197   0.0000       1.432928        38.9919 
 198   0.0000       1.453132        39.5417 
 199   0.0000       1.461106        39.7587 
 200   0.0000       1.463722        39.8299 
 201   0.0000       1.477112        40.1943 
 202   0.0000       1.484368        40.3917 
 203   0.0000       1.496405        40.7192 
 204   0.0000       1.504527        40.9403 
 205   0.0000       1.516259        41.2595 
 206   0.0000       1.526036        41.5256 
 207   0.0000       1.531650        41.6783 
 208   0.0000       1.536748        41.8170 
 209   0.0000       1.544106        42.0173 
 210   0.0000       1.583432        43.0874 
 211   0.0000       1.607156        43.7329 
 212   0.0000       1.612001        43.8648 
 213   0.0000       1.619330        44.0642 
 214   0.0000       1.629458        44.3398 
 215   0.0000       1.648044        44.8456 
 216   0.0000       1.691118        46.0177 
 217   0.0000       1.711969        46.5850 
 218   0.0000       1.743419        47.4408 
 219   0.0000       1.751362        47.6570 
 220   0.0000       1.788718        48.6735 
 221   0.0000       1.796062        48.8733 
 222   0.0000       1.836736        49.9801 
 223   0.0000       1.842111        50.1264 
 224   0.0000       1.846842        50.2551 
 225   0.0000       1.890689        51.4483 
 226   0.0000       1.914415        52.0939 
 227   0.0000       1.923987        52.3544 
 228   0.0000       1.931279        52.5528 
 229   0.0000       1.940642        52.8075 
 230   0.0000       1.947961        53.0067 
 231   0.0000       1.985152        54.0187 
 232   0.0000       1.988602        54.1126 
 233   0.0000       1.990182        54.1556 
 234   0.0000       2.010478        54.7079 
 235   0.0000       2.018725        54.9323 
 236   0.0000       2.027233        55.1638 
 237   0.0000       2.037818        55.4519 
 238   0.0000       2.049866        55.7797 
 239   0.0000       2.055324        55.9282 
 240   0.0000       2.071276        56.3623 
 241   0.0000       2.073569        56.4247 
 242   0.0000       2.086692        56.7818 
 243   0.0000       2.099718        57.1362 
 244   0.0000       2.106311        57.3156 
 245   0.0000       2.111191        57.4484 
 246   0.0000       2.128949        57.9317 
 247   0.0000       2.147850        58.4460 
 248   0.0000       2.151342        58.5410 
 249   0.0000       2.170649        59.0664 
 250   0.0000       2.191049        59.6215 
 251   0.0000       2.205756        60.0217 
 252   0.0000       2.207639        60.0729 
 253   0.0000       2.224465        60.5308 
 254   0.0000       2.226825        60.5950 
 255   0.0000       2.249445        61.2105 
 256   0.0000       2.260741        61.5179 
 257   0.0000       2.271690        61.8158 
 258   0.0000       2.293322        62.4045 
 259   0.0000       2.313368        62.9499 
 260   0.0000       2.330631        63.4197 
 261   0.0000       2.336078        63.5679 
 262   0.0000       2.358684        64.1830 
 263   0.0000       2.364296        64.3358 
 264   0.0000       2.378837        64.7314 
 265   0.0000       2.405457        65.4558 
 266   0.0000       2.414370        65.6984 
 267   0.0000       2.420608        65.8681 
 268   0.0000       2.454530        66.7912 
 269   0.0000       2.467981        67.1572 
 270   0.0000       2.474154        67.3252 
 271   0.0000       2.499238        68.0077 
 272   0.0000       2.537063        69.0370 
 273   0.0000       2.552701        69.4625 
 274   0.0000       2.564932        69.7954 
 275   0.0000       2.578122        70.1543 
 276   0.0000       2.595797        70.6352 
 277   0.0000       2.600652        70.7673 
 278   0.0000       2.620385        71.3043 
 279   0.0000       2.648846        72.0788 
 280   0.0000       2.670585        72.6703 
 281   0.0000       2.690319        73.2073 
 282   0.0000       2.711452        73.7824 
 283   0.0000       2.728390        74.2433 
 284   0.0000       2.743458        74.6533 
 285   0.0000       2.747532        74.7641 
 286   0.0000       2.766315        75.2753 
 287   0.0000       2.799367        76.1746 
 288   0.0000       2.836182        77.1764 
 289   0.0000       2.857779        77.7641 
 290   0.0000       2.865234        77.9670 
 291   0.0000       2.890914        78.6658 
 292   0.0000       2.907916        79.1284 
 293   0.0000       2.940078        80.0036 
 294   0.0000       2.968395        80.7741 
 295   0.0000       2.987172        81.2851 
 296   0.0000       2.998380        81.5901 
 297   0.0000       3.016643        82.0870 
 298   0.0000       3.026955        82.3676 
 299   0.0000       3.040430        82.7343 
 300   0.0000       3.049375        82.9777 
 301   0.0000       3.063564        83.3638 
 302   0.0000       3.069136        83.5154 
 303   0.0000       3.127963        85.1162 
 304   0.0000       3.154152        85.8288 
 305   0.0000       3.167909        86.2032 
 306   0.0000       3.197360        87.0046 
 307   0.0000       3.218099        87.5689 
 308   0.0000       3.238937        88.1359 
 309   0.0000       3.248489        88.3959 
 310   0.0000       3.288461        89.4836 
 311   0.0000       3.306070        89.9627 
 312   0.0000       3.327768        90.5532 
 313   0.0000       3.336391        90.7878 
 314   0.0000       3.349076        91.1330 
 315   0.0000       3.390150        92.2507 
 316   0.0000       3.430996        93.3622 
 317   0.0000       3.458013        94.0973 
 318   0.0000       3.510422        95.5234 
 319   0.0000       3.541306        96.3638 
 320   0.0000       3.581496        97.4575 
 321   0.0000       3.618721        98.4704 
 322   0.0000       3.714078       101.0652 
 323   0.0000       3.804911       103.5369 
 324   0.0000       3.890497       105.8658 
 325   0.0000       3.906487       106.3009 
 326   0.0000       4.017950       109.3340 
 327   0.0000       4.028178       109.6123 
 328   0.0000       4.164227       113.3144 

                    ********************************
                    * MULLIKEN POPULATION ANALYSIS *
                    ********************************

-----------------------
MULLIKEN ATOMIC CHARGES
-----------------------
   0 C :    0.004492
   1 C :   -0.168993
   2 C :    0.504044
   3 O :   -0.400255
   4 O :   -0.357313
   5 C :   -0.084957
   6 C :   -0.021140
   7 C :    0.026441
   8 C :   -0.187128
   9 C :    0.440989
  10 O :   -0.376593
  11 C :   -0.335596
  12 C :    0.061056
  13 C :   -0.065072
  14 C :   -0.066171
  15 S :    0.170290
  16 C :    0.073926
  17 Cl:   -0.109480
  18 C :    0.049028
  19 H :    0.061335
  20 H :    0.043886
  21 H :    0.062436
  22 H :    0.079426
  23 H :    0.228781
  24 H :    0.040576
  25 H :    0.058257
  26 H :    0.075382
  27 H :    0.057654
  28 H :    0.089451
  29 H :    0.045249
Sum of atomic charges:    0.0000000

--------------------------------
MULLIKEN REDUCED ORBITAL CHARGES
--------------------------------
  0 C s       :     3.044225  s :     3.044225
      pz      :     0.972013  p :     2.913938
      px      :     1.010841
      py      :     0.931084
      dz2     :     0.008954  d :     0.037345
      dxz     :     0.004180
      dyz     :     0.008272
      dx2y2   :     0.011828
      dxy     :     0.004110
  1 C s       :     3.159962  s :     3.159962
      pz      :     0.951813  p :     2.957816
      px      :     0.926660
      py      :     1.079343
      dz2     :     0.013770  d :     0.051215
      dxz     :     0.008922
      dyz     :     0.007296
      dx2y2   :     0.012747
      dxy     :     0.008479
  2 C s       :     3.016486  s :     3.016486
      pz      :     0.944543  p :     2.327556
      px      :     0.718162
      py      :     0.664851
      dz2     :     0.045717  d :     0.151913
      dxz     :     0.036463
      dyz     :     0.019578
      dx2y2   :     0.026178
      dxy     :     0.023977
  3 O s       :     3.786451  s :     3.786451
      pz      :     1.461812  p :     4.593238
      px      :     1.681549
      py      :     1.449877
      dz2     :     0.005257  d :     0.020566
      dxz     :     0.006987
      dyz     :     0.004822
      dx2y2   :     0.001428
      dxy     :     0.002071
  4 O s       :     3.725454  s :     3.725454
      pz      :     1.396876  p :     4.616343
      px      :     1.385046
      py      :     1.834421
      dz2     :     0.006711  d :     0.015517
      dxz     :     0.001315
      dyz     :     0.000417
      dx2y2   :     0.004751
      dxy     :     0.002323
  5 C s       :     3.028290  s :     3.028290
      pz      :     0.986490  p :     3.005343
      px      :     1.007456
      py      :     1.011396
      dz2     :     0.005961  d :     0.051325
      dxz     :     0.007054
      dyz     :     0.007409
      dx2y2   :     0.015479
      dxy     :     0.015422
  6 C s       :     3.153427  s :     3.153427
      pz      :     0.985560  p :     2.824725
      px      :     0.902605
      py      :     0.936559
      dz2     :     0.004298  d :     0.042989
      dxz     :     0.007229
      dyz     :     0.005298
      dx2y2   :     0.012737
      dxy     :     0.013427
  7 C s       :     3.155734  s :     3.155734
      pz      :     0.937028  p :     2.774104
      px      :     0.899477
      py      :     0.937599
      dz2     :     0.004325  d :     0.043722
      dxz     :     0.008374
      dyz     :     0.004844
      dx2y2   :     0.012734
      dxy     :     0.013444
  8 C s       :     3.065451  s :     3.065451
      pz      :     1.021964  p :     3.072378
      px      :     1.012005
      py      :     1.038408
      dz2     :     0.006512  d :     0.049299
      dxz     :     0.006168
      dyz     :     0.007975
      dx2y2   :     0.016084
      dxy     :     0.012560
  9 C s       :     3.052055  s :     3.052055
      pz      :     0.846767  p :     2.393493
      px      :     0.845053
      py      :     0.701673
      dz2     :     0.034988  d :     0.113463
      dxz     :     0.036680
      dyz     :     0.023316
      dx2y2   :     0.011534
      dxy     :     0.006944
 10 O s       :     3.796784  s :     3.796784
      pz      :     1.411071  p :     4.559727
      px      :     1.774697
      py      :     1.373958
      dz2     :     0.007392  d :     0.020081
      dxz     :     0.005319
      dyz     :     0.005886
      dx2y2   :     0.000562
      dxy     :     0.000922
 11 C s       :     3.083346  s :     3.083346
      pz      :     1.033857  p :     3.202732
      px      :     0.996041
      py      :     1.172834
      dz2     :     0.015133  d :     0.049518
      dxz     :     0.013386
      dyz     :     0.006426
      dx2y2   :     0.008098
      dxy     :     0.006475
 12 C s       :     3.133293  s :     3.133293
      pz      :     0.923208  p :     2.760954
      px      :     0.917452
      py      :     0.920294
      dz2     :     0.011418  d :     0.044698
      dxz     :     0.014079
      dyz     :     0.008813
      dx2y2   :     0.006209
      dxy     :     0.004178
 13 C s       :     3.150357  s :     3.150357
      pz      :     0.921101  p :     2.871086
      px      :     0.909612
      py      :     1.040373
      dz2     :     0.010211  d :     0.043628
      dxz     :     0.015603
      dyz     :     0.004141
      dx2y2   :     0.006458
      dxy     :     0.007214
 14 C s       :     3.139843  s :     3.139843
      pz      :     0.878892  p :     2.881289
      px      :     0.982312
      py      :     1.020084
      dz2     :     0.014175  d :     0.045039
      dxz     :     0.010639
      dyz     :     0.007113
      dx2y2   :     0.006934
      dxy     :     0.006178
 15 S s       :     5.830775  s :     5.830775
      pz      :     3.149879  p :     9.871512
      px      :     3.067628
      py      :     3.654006
      dz2     :     0.052375  d :     0.127422
      dxz     :     0.012971
      dyz     :     0.017021
      dx2y2   :     0.027286
      dxy     :     0.017769
 16 C s       :     2.949820  s :     2.949820
      pz      :     1.027681  p :     2.913366
      px      :     0.942290
      py      :     0.943396
      dz2     :     0.006314  d :     0.062888
      dxz     :     0.010111
      dyz     :     0.008880
      dx2y2   :     0.018003
      dxy     :     0.019580
 17 Cls       :     5.955099  s :     5.955099
      pz      :     3.883035  p :    11.112481
      px      :     3.732460
      py      :     3.496987
      dz2     :     0.005702  d :     0.041900
      dxz     :     0.004635
      dyz     :     0.007870
      dx2y2   :     0.006062
      dxy     :     0.017631
 18 C s       :     3.206502  s :     3.206502
      pz      :     0.960994  p :     2.702426
      px      :     0.844450
      py      :     0.896983
      dz2     :     0.004213  d :     0.042044
      dxz     :     0.007773
      dyz     :     0.004722
      dx2y2   :     0.013275
      dxy     :     0.012061
 19 H s       :     0.913305  s :     0.913305
      pz      :     0.016425  p :     0.025360
      px      :     0.005532
      py      :     0.003403
 20 H s       :     0.930825  s :     0.930825
      pz      :     0.005632  p :     0.025289
      px      :     0.005073
      py      :     0.014583
 21 H s       :     0.912076  s :     0.912076
      pz      :     0.003663  p :     0.025489
      px      :     0.018378
      py      :     0.003448
 22 H s       :     0.896775  s :     0.896775
      pz      :     0.005384  p :     0.023799
      px      :     0.004952
      py      :     0.013463
 23 H s       :     0.702512  s :     0.702512
      pz      :     0.041899  p :     0.068708
      px      :     0.012281
      py      :     0.014528
 24 H s       :     0.933843  s :     0.933843
      pz      :     0.005542  p :     0.025581
      px      :     0.007740
      py      :     0.012298
 25 H s       :     0.915679  s :     0.915679
      pz      :     0.006307  p :     0.026064
      px      :     0.005167
      py      :     0.014590
 26 H s       :     0.897984  s :     0.897984
      pz      :     0.003954  p :     0.026634
      px      :     0.018731
      py      :     0.003950
 27 H s       :     0.916020  s :     0.916020
      pz      :     0.019151  p :     0.026326
      px      :     0.002580
      py      :     0.004595
 28 H s       :     0.884187  s :     0.884187
      pz      :     0.005297  p :     0.026362
      px      :     0.016858
      py      :     0.004208
 29 H s       :     0.928716  s :     0.928716
      pz      :     0.006319  p :     0.026035
      px      :     0.004907
      py      :     0.014809


                     *******************************
                     * LOEWDIN POPULATION ANALYSIS *
                     *******************************

----------------------
LOEWDIN ATOMIC CHARGES
----------------------
   0 C :   -0.012865
   1 C :   -0.042652
   2 C :    0.217255
   3 O :   -0.275031
   4 O :   -0.110741
   5 C :   -0.010763
   6 C :   -0.022388
   7 C :    0.011090
   8 C :   -0.072964
   9 C :    0.143618
  10 O :   -0.240381
  11 C :   -0.254195
  12 C :   -0.001894
  13 C :   -0.077724
  14 C :   -0.148739
  15 S :    0.464588
  16 C :   -0.100616
  17 Cl:    0.112245
  18 C :   -0.016968
  19 H :    0.029679
  20 H :    0.021751
  21 H :    0.026860
  22 H :    0.042724
  23 H :    0.117057
  24 H :    0.028631
  25 H :    0.039745
  26 H :    0.038854
  27 H :    0.032049
  28 H :    0.029898
  29 H :    0.031876

-------------------------------
LOEWDIN REDUCED ORBITAL CHARGES
-------------------------------
  0 C s       :     2.831426  s :     2.831426
      pz      :     1.033921  p :     3.098094
      px      :     1.054415
      py      :     1.009758
      dz2     :     0.020124  d :     0.083346
      dxz     :     0.009293
      dyz     :     0.018695
      dx2y2   :     0.026063
      dxy     :     0.009170
  1 C s       :     2.840258  s :     2.840258
      pz      :     1.012614  p :     3.091751
      px      :     1.017620
      py      :     1.061517
      dz2     :     0.030243  d :     0.110643
      dxz     :     0.019043
      dyz     :     0.015961
      dx2y2   :     0.027765
      dxy     :     0.017632
  2 C s       :     2.848085  s :     2.848085
      pz      :     1.059754  p :     2.634011
      px      :     0.893392
      py      :     0.680865
      dz2     :     0.094542  d :     0.300649
      dxz     :     0.074656
      dyz     :     0.032660
      dx2y2   :     0.054149
      dxy     :     0.044643
  3 O s       :     3.555105  s :     3.555105
      pz      :     1.547846  p :     4.688380
      px      :     1.703252
      py      :     1.437282
      dz2     :     0.009077  d :     0.031545
      dxz     :     0.012745
      dyz     :     0.005127
      dx2y2   :     0.002353
      dxy     :     0.002243
  4 O s       :     3.434712  s :     3.434712
      pz      :     1.445712  p :     4.648938
      px      :     1.421746
      py      :     1.781480
      dz2     :     0.012543  d :     0.027091
      dxz     :     0.003138
      dyz     :     0.000197
      dx2y2   :     0.008357
      dxy     :     0.002856
  5 C s       :     2.850079  s :     2.850079
      pz      :     0.964603  p :     3.049448
      px      :     1.027001
      py      :     1.057845
      dz2     :     0.011275  d :     0.111236
      dxz     :     0.014221
      dyz     :     0.015311
      dx2y2   :     0.035464
      dxy     :     0.034965
  6 C s       :     2.851938  s :     2.851938
      pz      :     0.989853  p :     3.072656
      px      :     1.053382
      py      :     1.029421
      dz2     :     0.008239  d :     0.097794
      dxz     :     0.014955
      dyz     :     0.010712
      dx2y2   :     0.030389
      dxy     :     0.033499
  7 C s       :     2.849432  s :     2.849432
      pz      :     0.960075  p :     3.040558
      px      :     1.051743
      py      :     1.028740
      dz2     :     0.008086  d :     0.098919
      dxz     :     0.017487
      dyz     :     0.009763
      dx2y2   :     0.031201
      dxy     :     0.032382
  8 C s       :     2.849269  s :     2.849269
      pz      :     0.995132  p :     3.111924
      px      :     1.046233
      py      :     1.070559
      dz2     :     0.012641  d :     0.111771
      dxz     :     0.013453
      dyz     :     0.016970
      dx2y2   :     0.038604
      dxy     :     0.030102
  9 C s       :     2.852189  s :     2.852189
      pz      :     1.026135  p :     2.767456
      px      :     1.023585
      py      :     0.717736
      dz2     :     0.079223  d :     0.236736
      dxz     :     0.079622
      dyz     :     0.040433
      dx2y2   :     0.023701
      dxy     :     0.013757
 10 O s       :     3.559288  s :     3.559288
      pz      :     1.504008  p :     4.650126
      px      :     1.775560
      py      :     1.370558
      dz2     :     0.013097  d :     0.030967
      dxz     :     0.009409
      dyz     :     0.006463
      dx2y2   :     0.000970
      dxy     :     0.001028
 11 C s       :     2.907029  s :     2.907029
      pz      :     1.085245  p :     3.239269
      px      :     1.020753
      py      :     1.133271
      dz2     :     0.035218  d :     0.107897
      dxz     :     0.031553
      dyz     :     0.012084
      dx2y2   :     0.016403
      dxy     :     0.012639
 12 C s       :     2.864728  s :     2.864728
      pz      :     1.048291  p :     3.036721
      px      :     1.056806
      py      :     0.931625
      dz2     :     0.027829  d :     0.100444
      dxz     :     0.035465
      dyz     :     0.017325
      dx2y2   :     0.013183
      dxy     :     0.006643
 13 C s       :     2.861025  s :     2.861025
      pz      :     1.046841  p :     3.117743
      px      :     1.046055
      py      :     1.024847
      dz2     :     0.024997  d :     0.098956
      dxz     :     0.038885
      dyz     :     0.006231
      dx2y2   :     0.014710
      dxy     :     0.014132
 14 C s       :     2.923648  s :     2.923648
      pz      :     1.024143  p :     3.131166
      px      :     1.087683
      py      :     1.019340
      dz2     :     0.030550  d :     0.093925
      dxz     :     0.024903
      dyz     :     0.013807
      dx2y2   :     0.014849
      dxy     :     0.009816
 15 S s       :     5.463504  s :     5.463504
      pz      :     3.183344  p :     9.913914
      px      :     3.124261
      py      :     3.606309
      dz2     :     0.065547  d :     0.157994
      dxz     :     0.016909
      dyz     :     0.018972
      dx2y2   :     0.034442
      dxy     :     0.022124
 16 C s       :     2.886882  s :     2.886882
      pz      :     1.021295  p :     3.081108
      px      :     1.057005
      py      :     1.002809
      dz2     :     0.011926  d :     0.132626
      dxz     :     0.019581
      dyz     :     0.017996
      dx2y2   :     0.041046
      dxy     :     0.042077
 17 Cls       :     5.743496  s :     5.743496
      pz      :     3.867296  p :    11.096393
      px      :     3.720863
      py      :     3.508234
      dz2     :     0.006374  d :     0.047866
      dxz     :     0.005362
      dyz     :     0.008897
      dx2y2   :     0.007047
      dxy     :     0.020186
 18 C s       :     2.855934  s :     2.855934
      pz      :     0.981038  p :     3.064451
      px      :     1.043046
      py      :     1.040367
      dz2     :     0.008232  d :     0.096583
      dxz     :     0.016082
      dyz     :     0.009384
      dx2y2   :     0.033261
      dxy     :     0.029624
 19 H s       :     0.904355  s :     0.904355
      pz      :     0.039211  p :     0.065966
      px      :     0.015512
      py      :     0.011243
 20 H s       :     0.912152  s :     0.912152
      pz      :     0.016050  p :     0.066097
      px      :     0.014513
      py      :     0.035534
 21 H s       :     0.906333  s :     0.906333
      pz      :     0.011990  p :     0.066806
      px      :     0.043185
      py      :     0.011631
 22 H s       :     0.888859  s :     0.888859
      pz      :     0.017908  p :     0.068416
      px      :     0.016419
      py      :     0.034089
 23 H s       :     0.708818  s :     0.708818
      pz      :     0.098891  p :     0.174125
      px      :     0.031581
      py      :     0.043653
 24 H s       :     0.902947  s :     0.902947
      pz      :     0.016991  p :     0.068421
      px      :     0.020975
      py      :     0.030455
 25 H s       :     0.891243  s :     0.891243
      pz      :     0.017926  p :     0.069012
      px      :     0.015491
      py      :     0.035595
 26 H s       :     0.890045  s :     0.890045
      pz      :     0.013133  p :     0.071101
      px      :     0.045055
      py      :     0.012913
 27 H s       :     0.897344  s :     0.897344
      pz      :     0.044800  p :     0.070607
      px      :     0.010212
      py      :     0.015595
 28 H s       :     0.895370  s :     0.895370
      pz      :     0.018447  p :     0.074733
      px      :     0.041080
      py      :     0.015206
 29 H s       :     0.898471  s :     0.898471
      pz      :     0.018256  p :     0.069652
      px      :     0.015017
      py      :     0.036380


                      *****************************
                      * MAYER POPULATION ANALYSIS *
                      *****************************

  NA   - Mulliken gross atomic population
  ZA   - Total nuclear charge
  QA   - Mulliken gross atomic charge
  VA   - Mayer's total valence
  BVA  - Mayer's bonded valence
  FA   - Mayer's free valence

  ATOM       NA         ZA         QA         VA         BVA        FA
  0 C      5.9955     6.0000     0.0045     3.9095     3.9095    -0.0000
  1 C      6.1690     6.0000    -0.1690     3.7911     3.7911     0.0000
  2 C      5.4960     6.0000     0.5040     4.0222     4.0222     0.0000
  3 O      8.4003     8.0000    -0.4003     2.0654     2.0654     0.0000
  4 O      8.3573     8.0000    -0.3573     2.0646     2.0646    -0.0000
  5 C      6.0850     6.0000    -0.0850     3.7707     3.7707     0.0000
  6 C      6.0211     6.0000    -0.0211     3.9218     3.9218     0.0000
  7 C      5.9736     6.0000     0.0264     3.9737     3.9737     0.0000
  8 C      6.1871     6.0000    -0.1871     3.8380     3.8380    -0.0000
  9 C      5.5590     6.0000     0.4410     3.9825     3.9825    -0.0000
 10 O      8.3766     8.0000    -0.3766     2.0901     2.0901     0.0000
 11 C      6.3356     6.0000    -0.3356     3.7292     3.7292     0.0000
 12 C      5.9389     6.0000     0.0611     3.9152     3.9152     0.0000
 13 C      6.0651     6.0000    -0.0651     3.9039     3.9039    -0.0000
 14 C      6.0662     6.0000    -0.0662     3.8195     3.8195    -0.0000
 15 S     15.8297    16.0000     0.1703     2.4797     2.4797     0.0000
 16 C      5.9261     6.0000     0.0739     3.9560     3.9560    -0.0000
 17 Cl    17.1095    17.0000    -0.1095     1.0782     1.0782    -0.0000
 18 C      5.9510     6.0000     0.0490     3.9357     3.9357     0.0000
 19 H      0.9387     1.0000     0.0613     0.9833     0.9833    -0.0000
 20 H      0.9561     1.0000     0.0439     0.9873     0.9873    -0.0000
 21 H      0.9376     1.0000     0.0624     0.9871     0.9871    -0.0000
 22 H      0.9206     1.0000     0.0794     0.9821     0.9821     0.0000
 23 H      0.7712     1.0000     0.2288     0.9975     0.9975    -0.0000
 24 H      0.9594     1.0000     0.0406     0.9931     0.9931     0.0000
 25 H      0.9417     1.0000     0.0583     0.9953     0.9953    -0.0000
 26 H      0.9246     1.0000     0.0754     0.9937     0.9937     0.0000
 27 H      0.9423     1.0000     0.0577     0.9922     0.9922    -0.0000
 28 H      0.9105     1.0000     0.0895     0.9913     0.9913     0.0000
 29 H      0.9548     1.0000     0.0452     1.0161     1.0161    -0.0000

  Mayer bond orders larger than 0.100000
B(  0-C ,  1-C ) :   1.0227 B(  0-C , 19-H ) :   0.9857 B(  0-C , 20-H ) :   0.9800 
B(  0-C , 21-H ) :   0.9822 B(  1-C ,  2-C ) :   0.9286 B(  1-C ,  5-C ) :   0.9742 
B(  1-C , 22-H ) :   0.9572 B(  2-C ,  3-O ) :   2.0104 B(  2-C ,  4-O ) :   1.1311 
B(  4-O , 23-H ) :   0.9399 B(  5-C ,  6-C ) :   1.4262 B(  5-C , 18-C ) :   1.3960 
B(  6-C ,  7-C ) :   1.4321 B(  6-C , 24-H ) :   0.9991 B(  7-C ,  8-C ) :   1.4349 
B(  7-C , 25-H ) :   0.9998 B(  8-C ,  9-C ) :   0.9366 B(  8-C , 16-C ) :   1.4523 
B(  9-C , 10-O ) :   2.0694 B(  9-C , 11-C ) :   0.9997 B( 11-C , 12-C ) :   1.5744 
B( 11-C , 15-S ) :   1.1430 B( 12-C , 13-C ) :   1.2756 B( 12-C , 26-H ) :   0.9890 
B( 13-C , 14-C ) :   1.5897 B( 13-C , 27-H ) :   0.9998 B( 14-C , 15-S ) :   1.2007 
B( 14-C , 28-H ) :   0.9787 B( 16-C , 17-Cl) :   1.0002 B( 16-C , 18-C ) :   1.4314 
B( 18-C , 29-H ) :   0.9978 

-------
TIMINGS
-------

Total SCF time: 0 days 0 hours 0 min 14 sec 

Total time                  ....      14.906 sec
Sum of individual times     ....      14.639 sec  ( 98.2%)

Fock matrix formation       ....      13.858 sec  ( 93.0%)
Diagonalization             ....       0.220 sec  (  1.5%)
Density matrix formation    ....       0.028 sec  (  0.2%)
Population analysis         ....       0.026 sec  (  0.2%)
Initial guess               ....       0.092 sec  (  0.6%)
Orbital Transformation      ....       0.000 sec  (  0.0%)
Orbital Orthonormalization  ....       0.000 sec  (  0.0%)
DIIS solution               ....       0.132 sec  (  0.9%)
SOSCF solution              ....       0.154 sec  (  1.0%)

Maximum memory used throughout the entire SCF-calculation: 235.2 MB

-------------------------   --------------------
FINAL SINGLE POINT ENERGY     -1617.327520093883
-------------------------   --------------------


                            ***************************************
                            *     ORCA property calculations      *
                            ***************************************

                                    ---------------------
                                    Active property flags
                                    ---------------------
   (+) Dipole Moment


------------------------------------------------------------------------------
                       ORCA ELECTRIC PROPERTIES CALCULATION
------------------------------------------------------------------------------

Dipole Moment Calculation                       ... on
Quadrupole Moment Calculation                   ... off
Polarizability Calculation                      ... off
GBWName                                         ... ./ZINC000000000165/ZINC000000000165.gbw
Electron density                                ... ./ZINC000000000165/ZINC000000000165.scfp
The origin for moment calculation is the CENTER OF MASS  = ( 1.457039, -0.274691 -0.460462)

-------------
DIPOLE MOMENT
-------------
                                X             Y             Z
Electronic contribution:     16.91917      -3.98900      -1.01144
Nuclear contribution   :    -18.22586       4.42901       0.12592
                        -----------------------------------------
Total Dipole Moment    :     -1.30670       0.44001      -0.88552
                        -----------------------------------------
Magnitude (a.u.)       :      1.63866
Magnitude (Debye)      :      4.16515



--------------------
Rotational spectrum 
--------------------
 
Rotational constants in cm-1:     0.023217     0.005044     0.004874 
Rotational constants in MHz :   696.035009   151.211770   146.106383 

 Dipole components along the rotational axes: 
x,y,z [a.u.] :     1.190244    -0.969333    -0.573520 
x,y,z [Debye]:     3.025360    -2.463849    -1.457773 

 

Timings for individual modules:

Sum of individual times         ...       15.510 sec (=   0.259 min)
GTO integral calculation        ...        0.389 sec (=   0.006 min)   2.5 %
SCF iterations                  ...       15.122 sec (=   0.252 min)  97.5 %
                             ****ORCA TERMINATED NORMALLY****
TOTAL RUN TIME: 0 days 0 hours 0 minutes 15 seconds 864 msec
