
                                 *****************
                                 * O   R   C   A *
                                 *****************

                                            #,                                       
                                            ###                                      
                                            ####                                     
                                            #####                                    
                                            ######                                   
                                           ########,                                 
                                     ,,################,,,,,                         
                               ,,#################################,,                 
                          ,,##########################################,,             
                       ,#########################################, ''#####,          
                    ,#############################################,,   '####,        
                  ,##################################################,,,,####,       
                ,###########''''           ''''###############################       
              ,#####''   ,,,,##########,,,,          '''####'''          '####       
            ,##' ,,,,###########################,,,                        '##       
           ' ,,###''''                  '''############,,,                           
         ,,##''                                '''############,,,,        ,,,,,,###''
      ,#''                                            '''#######################'''  
     '                                                          ''''####''''         
             ,#######,   #######,   ,#######,      ##                                
            ,#'     '#,  ##    ##  ,#'     '#,    #''#        ######   ,####,        
            ##       ##  ##   ,#'  ##            #'  '#       #        #'  '#        
            ##       ##  #######   ##           ,######,      #####,   #    #        
            '#,     ,#'  ##    ##  '#,     ,#' ,#      #,         ##   #,  ,#        
             '#######'   ##     ##  '#######'  #'      '#     #####' # '####'        



                  #######################################################
                  #                        -***-                        #
                  #          Department of theory and spectroscopy      #
                  #    Directorship and core code : Frank Neese         #
                  #        Max Planck Institute fuer Kohlenforschung    #
                  #                Kaiser Wilhelm Platz 1               #
                  #                 D-45470 Muelheim/Ruhr               #
                  #                      Germany                        #
                  #                                                     #
                  #                  All rights reserved                #
                  #                        -***-                        #
                  #######################################################


                         Program Version 5.0.3 -  RELEASE  -


 With contributions from (in alphabetic order):
   Daniel Aravena         : Magnetic Suceptibility
   Michael Atanasov       : Ab Initio Ligand Field Theory (pilot matlab implementation)
   Alexander A. Auer      : GIAO ZORA, VPT2 properties, NMR spectrum
   Ute Becker             : Parallelization
   Giovanni Bistoni       : ED, misc. LED, open-shell LED, HFLD
   Martin Brehm           : Molecular dynamics
   Dmytro Bykov           : SCF Hessian
   Vijay G. Chilkuri      : MRCI spin determinant printing, contributions to CSF-ICE
   Dipayan Datta          : RHF DLPNO-CCSD density
   Achintya Kumar Dutta   : EOM-CC, STEOM-CC
   Dmitry Ganyushin       : Spin-Orbit,Spin-Spin,Magnetic field MRCI
   Miquel Garcia          : C-PCM and meta-GGA Hessian, CC/C-PCM, Gaussian charge scheme
   Yang Guo               : DLPNO-NEVPT2, F12-NEVPT2, CIM, IAO-localization
   Andreas Hansen         : Spin unrestricted coupled pair/coupled cluster methods
   Benjamin Helmich-Paris : MC-RPA, TRAH-SCF, COSX integrals
   Lee Huntington         : MR-EOM, pCC
   Robert Izsak           : Overlap fitted RIJCOSX, COSX-SCS-MP3, EOM
   Marcus Kettner         : VPT2
   Christian Kollmar      : KDIIS, OOCD, Brueckner-CCSD(T), CCSD density, CASPT2, CASPT2-K
   Simone Kossmann        : Meta GGA functionals, TD-DFT gradient, OOMP2, MP2 Hessian
   Martin Krupicka        : Initial AUTO-CI
   Lucas Lang             : DCDCAS
   Marvin Lechner         : AUTO-CI (C++ implementation), FIC-MRCC
   Dagmar Lenk            : GEPOL surface, SMD
   Dimitrios Liakos       : Extrapolation schemes; Compound Job, initial MDCI parallelization
   Dimitrios Manganas     : Further ROCIS development; embedding schemes
   Dimitrios Pantazis     : SARC Basis sets
   Anastasios Papadopoulos: AUTO-CI, single reference methods and gradients
   Taras Petrenko         : DFT Hessian,TD-DFT gradient, ASA, ECA, R-Raman, ABS, FL, XAS/XES, NRVS
   Peter Pinski           : DLPNO-MP2, DLPNO-MP2 Gradient
   Christoph Reimann      : Effective Core Potentials
   Marius Retegan         : Local ZFS, SOC
   Christoph Riplinger    : Optimizer, TS searches, QM/MM, DLPNO-CCSD(T), (RO)-DLPNO pert. Triples
   Tobias Risthaus        : Range-separated hybrids, TD-DFT gradient, RPA, STAB
   Michael Roemelt        : Original ROCIS implementation
   Masaaki Saitow         : Open-shell DLPNO-CCSD energy and density
   Barbara Sandhoefer     : DKH picture change effects
   Avijit Sen             : IP-ROCIS
   Kantharuban Sivalingam : CASSCF convergence, NEVPT2, FIC-MRCI
   Bernardo de Souza      : ESD, SOC TD-DFT
   Georgi Stoychev        : AutoAux, RI-MP2 NMR, DLPNO-MP2 response
   Willem Van den Heuvel  : Paramagnetic NMR
   Boris Wezisla          : Elementary symmetry handling
   Frank Wennmohs         : Technical directorship


 We gratefully acknowledge several colleagues who have allowed us to
 interface, adapt or use parts of their codes:
   Stefan Grimme, W. Hujo, H. Kruse, P. Pracht,  : VdW corrections, initial TS optimization,
                  C. Bannwarth, S. Ehlert          DFT functionals, gCP, sTDA/sTD-DF
   Ed Valeev, F. Pavosevic, A. Kumar             : LibInt (2-el integral package), F12 methods
   Garnet Chan, S. Sharma, J. Yang, R. Olivares  : DMRG
   Ulf Ekstrom                                   : XCFun DFT Library
   Mihaly Kallay                                 : mrcc  (arbitrary order and MRCC methods)
   Jiri Pittner, Ondrej Demel                    : Mk-CCSD
   Frank Weinhold                                : gennbo (NPA and NBO analysis)
   Christopher J. Cramer and Donald G. Truhlar   : smd solvation model
   Lars Goerigk                                  : TD-DFT with DH, B97 family of functionals
   V. Asgeirsson, H. Jonsson                     : NEB implementation
   FAccTs GmbH                                   : IRC, NEB, NEB-TS, DLPNO-Multilevel, CI-OPT
                                                   MM, QMMM, 2- and 3-layer-ONIOM, Crystal-QMMM,
                                                   LR-CPCM, SF, NACMEs, symmetry and pop. for TD-DFT,
                                                   nearIR, NL-DFT gradient (VV10), updates on ESD,
                                                   ML-optimized integration grids
   S Lehtola, MJT Oliveira, MAL Marques          : LibXC Library
   Liviu Ungur et al                             : ANISO software


 Your calculation uses the libint2 library for the computation of 2-el integrals
 For citations please refer to: http://libint.valeyev.net

 Your ORCA version has been built with support for libXC version: 5.1.0
 For citations please refer to: https://tddft.org/programs/libxc/

 This ORCA versions uses:
   CBLAS   interface :  Fast vector & matrix operations
   LAPACKE interface :  Fast linear algebra routines
   SCALAPACK package :  Parallel linear algebra routines
   Shared memory     :  Shared parallel matrices
   BLAS/LAPACK       :  OpenBLAS 0.3.15  USE64BITINT DYNAMIC_ARCH NO_AFFINITY Zen SINGLE_THREADED
        Core in use  :  Zen
   Copyright (c) 2011-2014, The OpenBLAS Project


================================================================================

----- Orbital basis set information -----
Your calculation utilizes the basis: def2-SVP
   F. Weigend and R. Ahlrichs, Phys. Chem. Chem. Phys. 7, 3297 (2005).

================================================================================
                                        WARNINGS
                       Please study these warnings very carefully!
================================================================================


INFO   : the flag for use of the SHARK integral package has been found!

================================================================================
                                       INPUT FILE
================================================================================
NAME = ./ZINC000000000115/ZINC000000000115.inp
|  1> !RHF def2-SVP TightSCF PAL16 
|  2> *xyz 0 1
|  3> O -4.593710178426715 1.2698630938900488 -2.6867772432007526
|  4> C -3.7283741201419356 1.8459065948495692 -2.046480592544687
|  5> O -2.899887160080079 2.706467674220023 -2.6753016794883258
|  6> C -3.49145429832214 1.7720633303944524 -0.5565362359862399
|  7> C -4.506861216745694 0.8395004095150679 0.13998061763149275
|  8> C -3.828166248818948 0.32528102663304237 1.4145209038558162
|  9> C -2.391729475589408 0.32821799478530256 0.9968802251854343
| 10> C -1.3317990558721944 -0.3120704475235243 1.6201052765048152
| 11> C -0.040249116280026156 -0.14570215545895887 1.1099505755920167
| 12> O 0.924888964742964 -0.825440762914444 1.8014322340276954
| 13> C 2.2829418864518582 -0.7241955346393284 1.3700749659899314
| 14> C 2.584845968202059 -1.765531385969278 0.29828283302248493
| 15> N 3.9493178942491034 -1.6813177528959327 -0.17260940020441037
| 16> C 4.381720883964744 -1.0145564790403545 -1.282963317887395
| 17> C 5.740580986751195 -1.2253274854624245 -1.3112118245479958
| 18> N 6.135864235200455 -1.9998810046023994 -0.2506684524405995
| 19> C 5.03503620095789 -2.2685190346089303 0.4113963057008344
| 20> C 0.16167385600982842 0.6707472144911107 -0.013072135104980854
| 21> C -0.9140037516565708 1.326471252507782 -0.627829925438092
| 22> C -2.1912788855238525 1.1412084291515123 -0.12382224654774833
| 23> H -3.195510427536358 2.6719068755837068 -3.609677158476714
| 24> H -3.573642498714102 2.780630886344198 -0.1328410957446615
| 25> H -4.751143543393509 -0.018963995249369495 -0.5010848576589533
| 26> H -5.451792455672182 1.3493930581910476 0.3563057999114128
| 27> H -3.9791815818725595 1.0167018771703236 2.2502608643341566
| 28> H -4.185823722612148 -0.6729884833235132 1.6838438836557232
| 29> H -1.4974155270634346 -0.9296063770704102 2.4979361614822446
| 30> H 2.9010109608309014 -0.9341588285380548 2.251921887412626
| 31> H 2.5525737481468913 0.2959027366334614 1.0712398681955824
| 32> H 1.9206384896825026 -1.6568849544436945 -0.5662858967801324
| 33> H 2.420510816420675 -2.777985948237069 0.686529361419603
| 34> H 3.719005129731163 -0.46770780578825477 -1.9391594099659872
| 35> H 6.454854444592643 -0.8607430898926045 -2.0362739307516757
| 36> H 4.9726136497582605 -2.869201223335461 1.3092535461532442
| 37> H 1.146891740532215 0.8335819517228266 -0.43562128385698284
| 38> H -0.7329465919090217 1.9769383428249714 -1.4788845984484869
| 39> *
| 40> 
| 41>                          ****END OF INPUT****
================================================================================

                       ****************************
                       * Single Point Calculation *
                       ****************************

---------------------------------
CARTESIAN COORDINATES (ANGSTROEM)
---------------------------------
  O     -4.593710    1.269863   -2.686777
  C     -3.728374    1.845907   -2.046481
  O     -2.899887    2.706468   -2.675302
  C     -3.491454    1.772063   -0.556536
  C     -4.506861    0.839500    0.139981
  C     -3.828166    0.325281    1.414521
  C     -2.391729    0.328218    0.996880
  C     -1.331799   -0.312070    1.620105
  C     -0.040249   -0.145702    1.109951
  O      0.924889   -0.825441    1.801432
  C      2.282942   -0.724196    1.370075
  C      2.584846   -1.765531    0.298283
  N      3.949318   -1.681318   -0.172609
  C      4.381721   -1.014556   -1.282963
  C      5.740581   -1.225327   -1.311212
  N      6.135864   -1.999881   -0.250668
  C      5.035036   -2.268519    0.411396
  C      0.161674    0.670747   -0.013072
  C     -0.914004    1.326471   -0.627830
  C     -2.191279    1.141208   -0.123822
  H     -3.195510    2.671907   -3.609677
  H     -3.573642    2.780631   -0.132841
  H     -4.751144   -0.018964   -0.501085
  H     -5.451792    1.349393    0.356306
  H     -3.979182    1.016702    2.250261
  H     -4.185824   -0.672988    1.683844
  H     -1.497416   -0.929606    2.497936
  H      2.901011   -0.934159    2.251922
  H      2.552574    0.295903    1.071240
  H      1.920638   -1.656885   -0.566286
  H      2.420511   -2.777986    0.686529
  H      3.719005   -0.467708   -1.939159
  H      6.454854   -0.860743   -2.036274
  H      4.972614   -2.869201    1.309254
  H      1.146892    0.833582   -0.435621
  H     -0.732947    1.976938   -1.478885

----------------------------
CARTESIAN COORDINATES (A.U.)
----------------------------
  NO LB      ZA    FRAG     MASS         X           Y           Z
   0 O     8.0000    0    15.999   -8.680854    2.399693   -5.077273
   1 C     6.0000    0    12.011   -7.045606    3.488258   -3.867288
   2 O     8.0000    0    15.999   -5.479993    5.114483   -5.055587
   3 C     6.0000    0    12.011   -6.597892    3.348714   -1.051701
   4 C     6.0000    0    12.011   -8.516733    1.586426    0.264525
   5 C     6.0000    0    12.011   -7.234186    0.614692    2.673057
   6 C     6.0000    0    12.011   -4.519714    0.620242    1.883831
   7 C     6.0000    0    12.011   -2.516735   -0.589728    3.061555
   8 C     6.0000    0    12.011   -0.076060   -0.275337    2.097503
   9 O     8.0000    0    15.999    1.747787   -1.559857    3.404214
  10 C     6.0000    0    12.011    4.314135   -1.368531    2.589066
  11 C     6.0000    0    12.011    4.884651   -3.336371    0.563673
  12 N     7.0000    0    14.007    7.463129   -3.177230   -0.326184
  13 C     6.0000    0    12.011    8.280252   -1.917234   -2.424449
  14 C     6.0000    0    12.011   10.848126   -2.315533   -2.477831
  15 N     7.0000    0    14.007   11.595103   -3.779227   -0.473695
  16 C     6.0000    0    12.011    9.514839   -4.286880    0.777426
  17 C     6.0000    0    12.011    0.305519    1.267529   -0.024703
  18 C     6.0000    0    12.011   -1.727217    2.506667   -1.186427
  19 C     6.0000    0    12.011   -4.140917    2.156571   -0.233990
  20 H     1.0000    0     1.008   -6.038640    5.049172   -6.821301
  21 H     1.0000    0     1.008   -6.753206    5.254631   -0.251033
  22 H     1.0000    0     1.008   -8.978360   -0.035837   -0.946913
  23 H     1.0000    0     1.008  -10.302395    2.549983    0.673320
  24 H     1.0000    0     1.008   -7.519563    1.921288    4.252377
  25 H     1.0000    0     1.008   -7.910060   -1.271764    3.182004
  26 H     1.0000    0     1.008   -2.829705   -1.756701    4.720415
  27 H     1.0000    0     1.008    5.482116   -1.765304    4.255516
  28 H     1.0000    0     1.008    4.823665    0.559175    2.024350
  29 H     1.0000    0     1.008    3.629481   -3.131059   -1.070125
  30 H     1.0000    0     1.008    4.574103   -5.249633    1.297352
  31 H     1.0000    0     1.008    7.027901   -0.883840   -3.664480
  32 H     1.0000    0     1.008   12.197907   -1.626569   -3.848000
  33 H     1.0000    0     1.008    9.396878   -5.422005    2.474131
  34 H     1.0000    0     1.008    2.167311    1.575242   -0.823205
  35 H     1.0000    0     1.008   -1.385068    3.735872   -2.794687

--------------------------------
INTERNAL COORDINATES (ANGSTROEM)
--------------------------------
 O      0   0   0     0.000000000000     0.00000000     0.00000000
 C      1   0   0     1.220906388552     0.00000000     0.00000000
 O      2   1   0     1.349952582021   119.43661597     0.00000000
 C      2   1   3     1.510469468515   127.25924142   176.58677341
 C      4   2   1     1.544623105730   111.79006281     0.04942506
 C      5   4   2     1.532808329319   106.64369611   154.01877521
 C      6   5   4     1.495922112193   101.09100534   329.89922819
 C      7   6   5     1.386301283484   127.42724119   195.65578630
 C      8   7   6     1.398584096123   119.15251921   182.70124183
 O      9   8   7     1.368094650914   114.07955911   180.15548118
 C     10   9   8     1.428505312241   118.87050720   180.18394666
 C     11  10   9     1.524553969571   110.61810822   273.23708275
 N     12  11  10     1.445895939644   112.08919882   179.35029956
 C     13  12  11     1.365440868124   126.30742499   263.98921450
 C     14  13  12     1.375399278109   104.75813611   180.04063705
 N     15  14  13     1.371471561731   110.81896270     0.04180128
 C     16  15  14     1.312371325545   105.30476002     0.47821683
 C      9   8   7     1.403047564829   119.60967027     0.47012656
 C     18   9   8     1.401778680978   120.85027198     0.24776117
 C     19  18   9     1.385560472045   119.03343934   358.96597167
 H      3   2   1     0.980635049750   103.67168694   359.28597996
 H      4   2   1     1.097032810386   108.92163365   239.07756076
 H      5   4   2     1.098908518927   110.77641415    35.83941343
 H      5   4   2     1.095300024633   112.03243154   276.83980965
 H      6   5   4     1.095139125826   111.20410104    86.79093719
 H      6   5   4     1.094073009683   111.47165759   210.02750617
 H      8   7   6     1.085986419082   120.62570577     2.23723832
 H     11  10   9     1.097154482428   106.21756573   155.29356910
 H     11  10   9     1.096633138095   112.45518608    40.99157120
 H     12  11  10     1.095652641195   111.52863649    58.08799723
 H     12  11  10     1.096724965331   110.61051423   300.05388295
 H     14  13  12     1.081123930734   123.12342526   359.91851071
 H     15  14  13     1.081121367804   127.93956194   180.11988000
 H     17  16  15     1.082064365454   125.49421275   179.55762022
 H     18   9   8     1.084304945457   122.01038845   179.47706632
 H     19  18   9     1.086362364561   119.71976127   178.24248109

---------------------------
INTERNAL COORDINATES (A.U.)
---------------------------
 O      0   0   0     0.000000000000     0.00000000     0.00000000
 C      1   0   0     2.307178709518     0.00000000     0.00000000
 O      2   1   0     2.551040673799   119.43661597     0.00000000
 C      2   1   3     2.854373629143   127.25924142   176.58677341
 C      4   2   1     2.918914649957   111.79006281     0.04942506
 C      5   4   2     2.896587958206   106.64369611   154.01877521
 C      6   5   4     2.826883109722   101.09100534   329.89922819
 C      7   6   5     2.619729764887   127.42724119   195.65578630
 C      8   7   6     2.642940916930   119.15251921   182.70124183
 O      9   8   7     2.585324215510   114.07955911   180.15548118
 C     10   9   8     2.699483820986   118.87050720   180.18394666
 C     11  10   9     2.880989478871   110.61810822   273.23708275
 N     12  11  10     2.732347344076   112.08919882   179.35029956
 C     13  12  11     2.580309292818   126.30742499   263.98921450
 C     14  13  12     2.599127960418   104.75813611   180.04063705
 N     15  14  13     2.591705652133   110.81896270     0.04180128
 C     16  15  14     2.480022391291   105.30476002     0.47821683
 C      9   8   7     2.651375650391   119.60967027     0.47012656
 C     18   9   8     2.648977807417   120.85027198     0.24776117
 C     19  18   9     2.618329834152   119.03343934   358.96597167
 H      3   2   1     1.853131681352   103.67168694   359.28597996
 H      4   2   1     2.073091571555   108.92163365   239.07756076
 H      5   4   2     2.076636147004   110.77641415    35.83941343
 H      5   4   2     2.069817081034   112.03243154   276.83980965
 H      6   5   4     2.069513026353   111.20410104    86.79093719
 H      6   5   4     2.067498358816   111.47165759   210.02750617
 H      8   7   6     2.052216917224   120.62570577     2.23723832
 H     11  10   9     2.073321498393   106.21756573   155.29356910
 H     11  10   9     2.072336300383   112.45518608    40.99157120
 H     12  11  10     2.070483429766   111.52863649    58.08799723
 H     12  11  10     2.072509828710   110.61051423   300.05388295
 H     14  13  12     2.043028145916   123.12342526   359.91851071
 H     15  14  13     2.043023302680   127.93956194   180.11988000
 H     17  16  15     2.044805309982   125.49421275   179.55762022
 H     18   9   8     2.049039392571   122.01038845   179.47706632
 H     19  18   9     2.052927351219   119.71976127   178.24248109

---------------------
BASIS SET INFORMATION
---------------------
There are 4 groups of distinct atoms

 Group   1 Type O   : 7s4p1d contracted to 3s2p1d pattern {511/31/1}
 Group   2 Type C   : 7s4p1d contracted to 3s2p1d pattern {511/31/1}
 Group   3 Type N   : 7s4p1d contracted to 3s2p1d pattern {511/31/1}
 Group   4 Type H   : 4s1p contracted to 2s1p pattern {31/1}

Atom   0O    basis set group =>   1
Atom   1C    basis set group =>   2
Atom   2O    basis set group =>   1
Atom   3C    basis set group =>   2
Atom   4C    basis set group =>   2
Atom   5C    basis set group =>   2
Atom   6C    basis set group =>   2
Atom   7C    basis set group =>   2
Atom   8C    basis set group =>   2
Atom   9O    basis set group =>   1
Atom  10C    basis set group =>   2
Atom  11C    basis set group =>   2
Atom  12N    basis set group =>   3
Atom  13C    basis set group =>   2
Atom  14C    basis set group =>   2
Atom  15N    basis set group =>   3
Atom  16C    basis set group =>   2
Atom  17C    basis set group =>   2
Atom  18C    basis set group =>   2
Atom  19C    basis set group =>   2
Atom  20H    basis set group =>   4
Atom  21H    basis set group =>   4
Atom  22H    basis set group =>   4
Atom  23H    basis set group =>   4
Atom  24H    basis set group =>   4
Atom  25H    basis set group =>   4
Atom  26H    basis set group =>   4
Atom  27H    basis set group =>   4
Atom  28H    basis set group =>   4
Atom  29H    basis set group =>   4
Atom  30H    basis set group =>   4
Atom  31H    basis set group =>   4
Atom  32H    basis set group =>   4
Atom  33H    basis set group =>   4
Atom  34H    basis set group =>   4
Atom  35H    basis set group =>   4


           ************************************************************
           *        Program running with 16 parallel MPI-processes    *
           *              working on a common directory               *
           ************************************************************
------------------------------------------------------------------------------
                           ORCA GTO INTEGRAL CALCULATION
------------------------------------------------------------------------------
------------------------------------------------------------------------------
                   ___                                                        
                  /   \      - P O W E R E D   B Y -                         
                 /     \                                                     
                 |  |  |   _    _      __       _____    __    __             
                 |  |  |  | |  | |    /  \     |  _  \  |  |  /  |          
                  \  \/   | |  | |   /    \    | | | |  |  | /  /          
                 / \  \   | |__| |  /  /\  \   | |_| |  |  |/  /          
                |  |  |   |  __  | /  /__\  \  |    /   |      \           
                |  |  |   | |  | | |   __   |  |    \   |  |\   \          
                \     /   | |  | | |  |  |  |  | |\  \  |  | \   \       
                 \___/    |_|  |_| |__|  |__|  |_| \__\ |__|  \__/        
                                                                              
                      - O R C A' S   B I G   F R I E N D -                    
                                      &                                       
                       - I N T E G R A L  F E E D E R -                       
                                                                              
 v1 FN, 2020, v2 2021                                                         
------------------------------------------------------------------------------


Reading SHARK input file ./ZINC000000000115/ZINC000000000115.SHARKINP.tmp ... ok
----------------------
SHARK INTEGRAL PACKAGE
----------------------

Number of atoms                             ...     36
Number of basis functions                   ...    360
Number of shells                            ...    168
Maximum angular momentum                    ...      2
Integral batch strategy                     ... SHARK/LIBINT Hybrid
RI-J (if used) integral strategy            ... SPLIT-RIJ (Revised 2003 algorithm where possible)
Printlevel                                  ...      1
Contraction scheme used                     ... SEGMENTED contraction
Coulomb Range Separation                    ... NOT USED
Exchange Range Separation                   ... NOT USED
Finite Nucleus Model                        ... NOT USED
Auxiliary Coulomb fitting basis             ... NOT available
Auxiliary J/K fitting basis                 ... NOT available
Auxiliary Correlation fitting basis         ... NOT available
Auxiliary 'external' fitting basis          ... NOT available
Integral threshold                          ...     2.500000e-11
Primitive cut-off                           ...     2.500000e-12
Primitive pair pre-selection threshold      ...     2.500000e-12

Calculating pre-screening integrals         ... done (  0.0 sec) Dimension = 168
Organizing shell pair data                  ... done (  0.0 sec)
Shell pair information
Total number of shell pairs                 ...     14196
Shell pairs after pre-screening             ...      9770
Total number of primitive shell pairs       ...     51668
Primitive shell pairs kept                  ...     23307
          la=0 lb=0:   3028 shell pairs
          la=1 lb=0:   3640 shell pairs
          la=1 lb=1:   1124 shell pairs
          la=2 lb=0:   1154 shell pairs
          la=2 lb=1:    705 shell pairs
          la=2 lb=2:    119 shell pairs

Calculating one electron integrals          ... done (  0.0 sec)
Calculating Nuclear repulsion               ... done (  0.0 sec) ENN=   1443.917225548061 Eh

SHARK setup successfully completed in   0.2 seconds

Maximum memory used throughout the entire GTOINT-calculation: 15.5 MB


           ************************************************************
           *        Program running with 16 parallel MPI-processes    *
           *              working on a common directory               *
           ************************************************************
-------------------------------------------------------------------------------
                                 ORCA SCF
-------------------------------------------------------------------------------

------------
SCF SETTINGS
------------
Hamiltonian:
 Ab initio Hamiltonian  Method          .... Hartree-Fock(GTOs)


General Settings:
 Integral files         IntName         .... ./ZINC000000000115/ZINC000000000115
 Hartree-Fock type      HFTyp           .... RHF
 Total Charge           Charge          ....    0
 Multiplicity           Mult            ....    1
 Number of Electrons    NEL             ....  144
 Basis Dimension        Dim             ....  360
 Nuclear Repulsion      ENuc            ....   1443.9172255481 Eh

Convergence Acceleration:
 DIIS                   CNVDIIS         .... on
   Start iteration      DIISMaxIt       ....    12
   Startup error        DIISStart       ....  0.200000
   # of expansion vecs  DIISMaxEq       ....     5
   Bias factor          DIISBfac        ....   1.050
   Max. coefficient     DIISMaxC        ....  10.000
 Trust-Rad. Augm. Hess. CNVTRAH         .... auto
   Auto Start mean grad. ratio tolernc. ....  1.125000
   Auto Start start iteration           ....    20
   Auto Start num. interpolation iter.  ....    10
   Max. Number of Micro iterations      ....    16
   Max. Number of Macro iterations      .... Maxiter - #DIIS iter
   Number of Davidson start vectors     ....     2
   Converg. threshold I  (grad. norm)   ....   1.000e-05
   Converg. threshold II (energy diff.) ....   1.000e-08
   Grad. Scal. Fac. for Micro threshold ....   0.100
   Minimum threshold for Micro iter.    ....   0.010
   NR start threshold (gradient norm)   ....   0.001
   Initial trust radius                 ....   0.400
   Minimum AH scaling param. (alpha)    ....   1.000
   Maximum AH scaling param. (alpha)    .... 1000.000
   Orbital update algorithm             .... Taylor
   White noise on init. David. guess    .... on
   Maximum white noise                  ....   0.010
   Quad. conv. algorithm                .... NR
 SOSCF                  CNVSOSCF        .... on
   Start iteration      SOSCFMaxIt      ....   150
   Startup grad/error   SOSCFStart      ....  0.003300
 Level Shifting         CNVShift        .... on
   Level shift para.    LevelShift      ....    0.2500
   Turn off err/grad.   ShiftErr        ....    0.0010
 Zerner damping         CNVZerner       .... off
 Static damping         CNVDamp         .... on
   Fraction old density DampFac         ....    0.7000
   Max. Damping (<1)    DampMax         ....    0.9800
   Min. Damping (>=0)   DampMin         ....    0.0000
   Turn off err/grad.   DampErr         ....    0.1000
 Fernandez-Rico         CNVRico         .... off

SCF Procedure:
 Maximum # iterations   MaxIter         ....   125
 SCF integral mode      SCFMode         .... Direct
   Integral package                     .... SHARK and LIBINT hybrid scheme
 Reset frequency        DirectResetFreq ....    20
 Integral Threshold     Thresh          ....  2.500e-11 Eh
 Primitive CutOff       TCut            ....  2.500e-12 Eh

Convergence Tolerance:
 Convergence Check Mode ConvCheckMode   .... Total+1el-Energy
 Convergence forced     ConvForced      .... 0
 Energy Change          TolE            ....  1.000e-08 Eh
 1-El. energy change                    ....  1.000e-05 Eh
 Orbital Gradient       TolG            ....  1.000e-05
 Orbital Rotation angle TolX            ....  1.000e-05
 DIIS Error             TolErr          ....  5.000e-07


Diagonalization of the overlap matrix:
Smallest eigenvalue                        ... 2.318e-04
Time for diagonalization                   ...    0.020 sec
Threshold for overlap eigenvalues          ... 1.000e-08
Number of eigenvalues below threshold      ... 0
Time for construction of square roots      ...    0.013 sec
Total time needed                          ...    0.034 sec

Time for model grid setup =    0.150 sec

------------------------------
INITIAL GUESS: MODEL POTENTIAL
------------------------------
Loading Hartree-Fock densities                     ... done
Calculating cut-offs                               ... done
Initializing the effective Hamiltonian             ... done
Setting up the integral package (SHARK)            ... done
Starting the Coulomb interaction                   ... done (   0.0 sec)
Reading the grid                                   ... done
Mapping shells                                     ... done
Starting the XC term evaluation                    ... done (   0.0 sec)
Transforming the Hamiltonian                       ... done (   0.0 sec)
Diagonalizing the Hamiltonian                      ... done (   0.0 sec)
Back transforming the eigenvectors                 ... done (   0.0 sec)
Now organizing SCF variables                       ... done
                      ------------------
                      INITIAL GUESS DONE (   0.3 sec)
                      ------------------
--------------
SCF ITERATIONS
--------------
ITER       Energy         Delta-E        Max-DP      RMS-DP      [F,P]     Damp
               ***  Starting incremental Fock matrix formation  ***
  0   -909.5041715029   0.000000000000 0.06454432  0.00185232  0.2415040 0.7000
  1   -909.7229047498  -0.218733246858 0.05033327  0.00142921  0.1433889 0.7000
                               ***Turning on DIIS***
  2   -909.8575660869  -0.134661337132 0.11999288  0.00329690  0.0773606 0.0000
  3   -909.0554778861   0.802088200830 0.04557249  0.00073089  0.0500088 0.0000
  4   -910.2271639516  -1.171686065499 0.01085205  0.00027192  0.0085178 0.0000
  5   -910.1506059418   0.076558009738 0.00428215  0.00011976  0.0056134 0.0000
                      *** Initiating the SOSCF procedure ***
                           *** Shutting down DIIS ***
                      *** Re-Reading the Fockian *** 
                      *** Removing any level shift *** 
ITER      Energy       Delta-E        Grad      Rot      Max-DP    RMS-DP
  6   -910.14040031   0.0102056270  0.001524  0.001524  0.002009  0.000055
               *** Restarting incremental Fock matrix formation ***
  7   -910.14492587  -0.0045255548  0.000713  0.001293  0.001196  0.000026
  8   -910.14494490  -0.0000190296  0.000373  0.001626  0.001103  0.000029
  9   -910.14495183  -0.0000069289  0.000141  0.000182  0.000763  0.000008
 10   -910.14495278  -0.0000009554  0.000041  0.000060  0.000075  0.000002
 11   -910.14495287  -0.0000000837  0.000013  0.000044  0.000057  0.000001
 12   -910.14495288  -0.0000000171  0.000007  0.000022  0.000019  0.000000
 13   -910.14495288  -0.0000000003  0.000003  0.000008  0.000005  0.000000
                 **** Energy Check signals convergence ****
              ***Rediagonalizing the Fockian in SOSCF/NRSCF***

               *****************************************************
               *                     SUCCESS                       *
               *           SCF CONVERGED AFTER  14 CYCLES          *
               *****************************************************


----------------
TOTAL SCF ENERGY
----------------

Total Energy       :         -910.14495288 Eh          -24766.30326 eV

Components:
Nuclear Repulsion  :         1443.91722555 Eh           39290.98522 eV
Electronic Energy  :        -2354.06217843 Eh          -64057.28848 eV
One Electron Energy:        -4107.65132416 Eh         -111774.87506 eV
Two Electron Energy:         1753.58914573 Eh           47717.58657 eV

Virial components:
Potential Energy   :        -1816.21009012 Eh          -49421.58910 eV
Kinetic Energy     :          906.06513724 Eh           24655.28583 eV
Virial Ratio       :            2.00450278


---------------
SCF CONVERGENCE
---------------

  Last Energy change         ...   -3.1241e-10  Tolerance :   1.0000e-08
  Last MAX-Density change    ...    7.0108e-06  Tolerance :   1.0000e-07
  Last RMS-Density change    ...    9.2723e-08  Tolerance :   5.0000e-09
  Last Orbital Gradient      ...    1.0313e-06  Tolerance :   1.0000e-05
  Last Orbital Rotation      ...    4.6159e-06  Tolerance :   1.0000e-05

             **** THE GBW FILE WAS UPDATED (./ZINC000000000115/ZINC000000000115.gbw) ****
             **** DENSITY ./ZINC000000000115/ZINC000000000115.scfp WAS UPDATED ****
             **** ENERGY FILE WAS UPDATED (./ZINC000000000115/ZINC000000000115.en.tmp) ****
             **** THE GBW FILE WAS UPDATED (./ZINC000000000115/ZINC000000000115.gbw) ****
             **** DENSITY ./ZINC000000000115/ZINC000000000115.scfp WAS UPDATED ****
----------------
ORBITAL ENERGIES
----------------

  NO   OCC          E(Eh)            E(eV) 
   0   2.0000     -20.615068      -560.9645 
   1   2.0000     -20.594262      -560.3984 
   2   2.0000     -20.550989      -559.2208 
   3   2.0000     -15.626859      -425.2284 
   4   2.0000     -15.541207      -422.8977 
   5   2.0000     -11.398035      -310.1563 
   6   2.0000     -11.318930      -308.0038 
   7   2.0000     -11.312467      -307.8279 
   8   2.0000     -11.297910      -307.4318 
   9   2.0000     -11.297425      -307.4186 
  10   2.0000     -11.265919      -306.5613 
  11   2.0000     -11.265154      -306.5404 
  12   2.0000     -11.256080      -306.2935 
  13   2.0000     -11.251243      -306.1619 
  14   2.0000     -11.248236      -306.0801 
  15   2.0000     -11.245606      -306.0085 
  16   2.0000     -11.245191      -305.9972 
  17   2.0000     -11.241247      -305.8899 
  18   2.0000     -11.239619      -305.8456 
  19   2.0000     -11.237891      -305.7986 
  20   2.0000      -1.456855       -39.6430 
  21   2.0000      -1.407922       -38.3115 
  22   2.0000      -1.344433       -36.5839 
  23   2.0000      -1.340783       -36.4846 
  24   2.0000      -1.184705       -32.2375 
  25   2.0000      -1.181027       -32.1374 
  26   2.0000      -1.105282       -30.0763 
  27   2.0000      -1.049525       -28.5590 
  28   2.0000      -1.034162       -28.1410 
  29   2.0000      -0.999519       -27.1983 
  30   2.0000      -0.975411       -26.5423 
  31   2.0000      -0.972637       -26.4668 
  32   2.0000      -0.897923       -24.4337 
  33   2.0000      -0.860971       -23.4282 
  34   2.0000      -0.846774       -23.0419 
  35   2.0000      -0.810176       -22.0460 
  36   2.0000      -0.788786       -21.4639 
  37   2.0000      -0.783112       -21.3096 
  38   2.0000      -0.779052       -21.1991 
  39   2.0000      -0.736460       -20.0401 
  40   2.0000      -0.721234       -19.6258 
  41   2.0000      -0.713177       -19.4065 
  42   2.0000      -0.704391       -19.1675 
  43   2.0000      -0.692767       -18.8511 
  44   2.0000      -0.680070       -18.5056 
  45   2.0000      -0.656707       -17.8699 
  46   2.0000      -0.640131       -17.4188 
  47   2.0000      -0.634091       -17.2545 
  48   2.0000      -0.627113       -17.0646 
  49   2.0000      -0.620187       -16.8761 
  50   2.0000      -0.607140       -16.5211 
  51   2.0000      -0.604209       -16.4414 
  52   2.0000      -0.596516       -16.2320 
  53   2.0000      -0.586404       -15.9569 
  54   2.0000      -0.583787       -15.8856 
  55   2.0000      -0.570915       -15.5354 
  56   2.0000      -0.560815       -15.2606 
  57   2.0000      -0.540972       -14.7206 
  58   2.0000      -0.537744       -14.6328 
  59   2.0000      -0.520001       -14.1500 
  60   2.0000      -0.513491       -13.9728 
  61   2.0000      -0.505510       -13.7556 
  62   2.0000      -0.501751       -13.6533 
  63   2.0000      -0.488498       -13.2927 
  64   2.0000      -0.480352       -13.0711 
  65   2.0000      -0.470694       -12.8082 
  66   2.0000      -0.458087       -12.4652 
  67   2.0000      -0.432984       -11.7821 
  68   2.0000      -0.390824       -10.6349 
  69   2.0000      -0.347256        -9.4493 
  70   2.0000      -0.323361        -8.7991 
  71   2.0000      -0.320488        -8.7209 
  72   0.0000       0.108992         2.9658 
  73   0.0000       0.130760         3.5582 
  74   0.0000       0.158059         4.3010 
  75   0.0000       0.160876         4.3777 
  76   0.0000       0.166412         4.5283 
  77   0.0000       0.182513         4.9664 
  78   0.0000       0.183049         4.9810 
  79   0.0000       0.187211         5.0943 
  80   0.0000       0.207497         5.6463 
  81   0.0000       0.214015         5.8236 
  82   0.0000       0.217579         5.9206 
  83   0.0000       0.225091         6.1250 
  84   0.0000       0.227799         6.1987 
  85   0.0000       0.236765         6.4427 
  86   0.0000       0.247689         6.7400 
  87   0.0000       0.252910         6.8820 
  88   0.0000       0.256392         6.9768 
  89   0.0000       0.260747         7.0953 
  90   0.0000       0.269848         7.3429 
  91   0.0000       0.279493         7.6054 
  92   0.0000       0.292171         7.9504 
  93   0.0000       0.313989         8.5441 
  94   0.0000       0.340880         9.2758 
  95   0.0000       0.348367         9.4795 
  96   0.0000       0.353522         9.6198 
  97   0.0000       0.361718         9.8429 
  98   0.0000       0.362885         9.8746 
  99   0.0000       0.373711        10.1692 
 100   0.0000       0.388995        10.5851 
 101   0.0000       0.403096        10.9688 
 102   0.0000       0.416616        11.3367 
 103   0.0000       0.426803        11.6139 
 104   0.0000       0.442269        12.0348 
 105   0.0000       0.449904        12.2425 
 106   0.0000       0.463651        12.6166 
 107   0.0000       0.479167        13.0388 
 108   0.0000       0.481347        13.0981 
 109   0.0000       0.481540        13.1034 
 110   0.0000       0.501738        13.6530 
 111   0.0000       0.509142        13.8544 
 112   0.0000       0.525038        14.2870 
 113   0.0000       0.530272        14.4294 
 114   0.0000       0.538687        14.6584 
 115   0.0000       0.566487        15.4149 
 116   0.0000       0.571642        15.5552 
 117   0.0000       0.594182        16.1685 
 118   0.0000       0.602072        16.3832 
 119   0.0000       0.605866        16.4864 
 120   0.0000       0.626275        17.0418 
 121   0.0000       0.635170        17.2839 
 122   0.0000       0.650672        17.7057 
 123   0.0000       0.656089        17.8531 
 124   0.0000       0.668770        18.1981 
 125   0.0000       0.674180        18.3454 
 126   0.0000       0.680883        18.5278 
 127   0.0000       0.687751        18.7147 
 128   0.0000       0.695144        18.9158 
 129   0.0000       0.709851        19.3160 
 130   0.0000       0.728326        19.8188 
 131   0.0000       0.736404        20.0386 
 132   0.0000       0.739719        20.1288 
 133   0.0000       0.745905        20.2971 
 134   0.0000       0.756874        20.5956 
 135   0.0000       0.770327        20.9617 
 136   0.0000       0.772285        21.0149 
 137   0.0000       0.794038        21.6069 
 138   0.0000       0.798872        21.7384 
 139   0.0000       0.814674        22.1684 
 140   0.0000       0.823164        22.3994 
 141   0.0000       0.830902        22.6100 
 142   0.0000       0.833424        22.6786 
 143   0.0000       0.843806        22.9611 
 144   0.0000       0.847518        23.0621 
 145   0.0000       0.851881        23.1809 
 146   0.0000       0.859129        23.3781 
 147   0.0000       0.864551        23.5256 
 148   0.0000       0.867097        23.5949 
 149   0.0000       0.873751        23.7760 
 150   0.0000       0.881188        23.9783 
 151   0.0000       0.883668        24.0458 
 152   0.0000       0.890265        24.2253 
 153   0.0000       0.891161        24.2497 
 154   0.0000       0.895184        24.3592 
 155   0.0000       0.900065        24.4920 
 156   0.0000       0.912002        24.8168 
 157   0.0000       0.915491        24.9118 
 158   0.0000       0.918264        24.9872 
 159   0.0000       0.919677        25.0257 
 160   0.0000       0.929676        25.2978 
 161   0.0000       0.934238        25.4219 
 162   0.0000       0.943211        25.6661 
 163   0.0000       0.946858        25.7653 
 164   0.0000       0.953963        25.9587 
 165   0.0000       0.960200        26.1284 
 166   0.0000       0.963816        26.2268 
 167   0.0000       0.969466        26.3805 
 168   0.0000       0.987562        26.8729 
 169   0.0000       0.994472        27.0610 
 170   0.0000       1.009730        27.4762 
 171   0.0000       1.028297        27.9814 
 172   0.0000       1.039857        28.2960 
 173   0.0000       1.058916        28.8146 
 174   0.0000       1.070308        29.1246 
 175   0.0000       1.079285        29.3688 
 176   0.0000       1.085161        29.5287 
 177   0.0000       1.092580        29.7306 
 178   0.0000       1.114752        30.3339 
 179   0.0000       1.119428        30.4612 
 180   0.0000       1.130548        30.7638 
 181   0.0000       1.158077        31.5129 
 182   0.0000       1.164164        31.6785 
 183   0.0000       1.175758        31.9940 
 184   0.0000       1.196272        32.5522 
 185   0.0000       1.204902        32.7871 
 186   0.0000       1.230936        33.4955 
 187   0.0000       1.252220        34.0746 
 188   0.0000       1.263967        34.3943 
 189   0.0000       1.273732        34.6600 
 190   0.0000       1.288996        35.0754 
 191   0.0000       1.335435        36.3390 
 192   0.0000       1.340293        36.4712 
 193   0.0000       1.345437        36.6112 
 194   0.0000       1.359732        37.0002 
 195   0.0000       1.371201        37.3123 
 196   0.0000       1.397642        38.0318 
 197   0.0000       1.410340        38.3773 
 198   0.0000       1.430617        38.9291 
 199   0.0000       1.439204        39.1627 
 200   0.0000       1.447865        39.3984 
 201   0.0000       1.451932        39.5091 
 202   0.0000       1.468622        39.9632 
 203   0.0000       1.475840        40.1597 
 204   0.0000       1.493447        40.6388 
 205   0.0000       1.504676        40.9443 
 206   0.0000       1.520181        41.3662 
 207   0.0000       1.532024        41.6885 
 208   0.0000       1.545795        42.0632 
 209   0.0000       1.556975        42.3675 
 210   0.0000       1.565814        42.6080 
 211   0.0000       1.574852        42.8539 
 212   0.0000       1.588902        43.2362 
 213   0.0000       1.599663        43.5290 
 214   0.0000       1.614847        43.9422 
 215   0.0000       1.632340        44.4182 
 216   0.0000       1.637668        44.5632 
 217   0.0000       1.678612        45.6773 
 218   0.0000       1.680829        45.7377 
 219   0.0000       1.689103        45.9628 
 220   0.0000       1.708701        46.4961 
 221   0.0000       1.719763        46.7971 
 222   0.0000       1.730669        47.0939 
 223   0.0000       1.772324        48.2274 
 224   0.0000       1.793034        48.7909 
 225   0.0000       1.809799        49.2471 
 226   0.0000       1.831001        49.8241 
 227   0.0000       1.850917        50.3660 
 228   0.0000       1.878221        51.1090 
 229   0.0000       1.887842        51.3708 
 230   0.0000       1.900567        51.7171 
 231   0.0000       1.917273        52.1717 
 232   0.0000       1.939349        52.7724 
 233   0.0000       1.955351        53.2078 
 234   0.0000       1.963423        53.4275 
 235   0.0000       1.969304        53.5875 
 236   0.0000       1.978265        53.8313 
 237   0.0000       1.989789        54.1449 
 238   0.0000       1.995268        54.2940 
 239   0.0000       1.996872        54.3376 
 240   0.0000       2.020094        54.9695 
 241   0.0000       2.024749        55.0962 
 242   0.0000       2.034452        55.3602 
 243   0.0000       2.037285        55.4373 
 244   0.0000       2.048789        55.7504 
 245   0.0000       2.059881        56.0522 
 246   0.0000       2.062880        56.1338 
 247   0.0000       2.074937        56.4619 
 248   0.0000       2.078968        56.5716 
 249   0.0000       2.088607        56.8339 
 250   0.0000       2.098523        57.1037 
 251   0.0000       2.105177        57.2848 
 252   0.0000       2.112253        57.4773 
 253   0.0000       2.116621        57.5962 
 254   0.0000       2.127740        57.8987 
 255   0.0000       2.134809        58.0911 
 256   0.0000       2.138902        58.2025 
 257   0.0000       2.149733        58.4972 
 258   0.0000       2.163657        58.8761 
 259   0.0000       2.166622        58.9568 
 260   0.0000       2.174991        59.1845 
 261   0.0000       2.189106        59.5686 
 262   0.0000       2.202768        59.9404 
 263   0.0000       2.204397        59.9847 
 264   0.0000       2.217947        60.3534 
 265   0.0000       2.219329        60.3910 
 266   0.0000       2.221862        60.4599 
 267   0.0000       2.243101        61.0379 
 268   0.0000       2.258530        61.4577 
 269   0.0000       2.279120        62.0180 
 270   0.0000       2.288482        62.2728 
 271   0.0000       2.299041        62.5601 
 272   0.0000       2.314398        62.9780 
 273   0.0000       2.325364        63.2764 
 274   0.0000       2.330122        63.4058 
 275   0.0000       2.341861        63.7253 
 276   0.0000       2.344768        63.8044 
 277   0.0000       2.370085        64.4933 
 278   0.0000       2.381660        64.8083 
 279   0.0000       2.387538        64.9682 
 280   0.0000       2.409916        65.5771 
 281   0.0000       2.433008        66.2055 
 282   0.0000       2.444477        66.5176 
 283   0.0000       2.454675        66.7951 
 284   0.0000       2.473097        67.2964 
 285   0.0000       2.498566        67.9894 
 286   0.0000       2.503046        68.1113 
 287   0.0000       2.543823        69.2210 
 288   0.0000       2.553484        69.4838 
 289   0.0000       2.566456        69.8368 
 290   0.0000       2.582038        70.2608 
 291   0.0000       2.602152        70.8082 
 292   0.0000       2.618438        71.2513 
 293   0.0000       2.633795        71.6692 
 294   0.0000       2.643167        71.9242 
 295   0.0000       2.657447        72.3128 
 296   0.0000       2.681453        72.9660 
 297   0.0000       2.693055        73.2818 
 298   0.0000       2.702941        73.5508 
 299   0.0000       2.717550        73.9483 
 300   0.0000       2.725706        74.1702 
 301   0.0000       2.730263        74.2942 
 302   0.0000       2.748492        74.7903 
 303   0.0000       2.765961        75.2656 
 304   0.0000       2.780786        75.6690 
 305   0.0000       2.810562        76.4793 
 306   0.0000       2.818286        76.6895 
 307   0.0000       2.835457        77.1567 
 308   0.0000       2.848541        77.5128 
 309   0.0000       2.859960        77.8235 
 310   0.0000       2.888054        78.5879 
 311   0.0000       2.925915        79.6182 
 312   0.0000       2.959196        80.5238 
 313   0.0000       2.962778        80.6213 
 314   0.0000       2.963498        80.6409 
 315   0.0000       2.985449        81.2382 
 316   0.0000       2.992650        81.4341 
 317   0.0000       3.022557        82.2480 
 318   0.0000       3.027430        82.3805 
 319   0.0000       3.045816        82.8809 
 320   0.0000       3.060969        83.2932 
 321   0.0000       3.082642        83.8830 
 322   0.0000       3.091925        84.1355 
 323   0.0000       3.105038        84.4924 
 324   0.0000       3.133767        85.2741 
 325   0.0000       3.147651        85.6519 
 326   0.0000       3.165294        86.1320 
 327   0.0000       3.175666        86.4143 
 328   0.0000       3.178663        86.4958 
 329   0.0000       3.212207        87.4086 
 330   0.0000       3.223087        87.7046 
 331   0.0000       3.245473        88.3138 
 332   0.0000       3.257580        88.6433 
 333   0.0000       3.263436        88.8026 
 334   0.0000       3.270486        88.9944 
 335   0.0000       3.287959        89.4699 
 336   0.0000       3.299484        89.7835 
 337   0.0000       3.310792        90.0912 
 338   0.0000       3.323565        90.4388 
 339   0.0000       3.331703        90.6602 
 340   0.0000       3.347734        91.0965 
 341   0.0000       3.354332        91.2760 
 342   0.0000       3.385462        92.1231 
 343   0.0000       3.413990        92.8994 
 344   0.0000       3.444701        93.7351 
 345   0.0000       3.453853        93.9841 
 346   0.0000       3.474597        94.5486 
 347   0.0000       3.547782        96.5401 
 348   0.0000       3.554036        96.7102 
 349   0.0000       3.589536        97.6762 
 350   0.0000       3.632910        98.8565 
 351   0.0000       3.749845       102.0385 
 352   0.0000       3.764977       102.4502 
 353   0.0000       3.777075       102.7794 
 354   0.0000       3.882926       105.6598 
 355   0.0000       3.898071       106.0719 
 356   0.0000       3.898619       106.0868 
 357   0.0000       4.026162       109.5574 
 358   0.0000       4.083003       111.1042 
 359   0.0000       4.167482       113.4030 

                    ********************************
                    * MULLIKEN POPULATION ANALYSIS *
                    ********************************

-----------------------
MULLIKEN ATOMIC CHARGES
-----------------------
   0 O :   -0.409911
   1 C :    0.522988
   2 O :   -0.359660
   3 C :   -0.131492
   4 C :    0.010426
   5 C :    0.102219
   6 C :   -0.139463
   7 C :   -0.077215
   8 C :    0.347063
   9 O :   -0.562426
  10 C :    0.278907
  11 C :    0.157228
  12 N :   -0.495898
  13 C :    0.066022
  14 C :    0.051269
  15 N :   -0.361700
  16 C :    0.261027
  17 C :   -0.156341
  18 C :    0.022594
  19 C :   -0.152854
  20 H :    0.226108
  21 H :    0.088161
  22 H :    0.072243
  23 H :    0.039301
  24 H :    0.054486
  25 H :    0.051010
  26 H :    0.035122
  27 H :    0.045921
  28 H :    0.048847
  29 H :    0.059135
  30 H :    0.063001
  31 H :    0.056659
  32 H :    0.046020
  33 H :    0.059084
  34 H :    0.031437
  35 H :    0.050683
Sum of atomic charges:   -0.0000000

--------------------------------
MULLIKEN REDUCED ORBITAL CHARGES
--------------------------------
  0 O s       :     3.790031  s :     3.790031
      pz      :     1.667952  p :     4.599415
      px      :     1.426349
      py      :     1.505114
      dz2     :     0.002369  d :     0.020466
      dxz     :     0.005086
      dyz     :     0.003559
      dx2y2   :     0.005038
      dxy     :     0.004412
  1 C s       :     3.011054  s :     3.011054
      pz      :     0.919961  p :     2.314003
      px      :     0.714592
      py      :     0.679450
      dz2     :     0.036002  d :     0.151955
      dxz     :     0.033149
      dyz     :     0.025146
      dx2y2   :     0.031116
      dxy     :     0.026540
  2 O s       :     3.728287  s :     3.728287
      pz      :     1.278245  p :     4.615884
      px      :     1.665066
      py      :     1.672573
      dz2     :     0.003403  d :     0.015488
      dxz     :     0.003755
      dyz     :     0.001754
      dx2y2   :     0.002524
      dxy     :     0.004052
  3 C s       :     3.130705  s :     3.130705
      pz      :     0.912255  p :     2.949536
      px      :     0.948171
      py      :     1.089110
      dz2     :     0.016096  d :     0.051251
      dxz     :     0.007420
      dyz     :     0.006708
      dx2y2   :     0.010643
      dxy     :     0.010384
  4 C s       :     3.076724  s :     3.076724
      pz      :     0.931724  p :     2.867716
      px      :     0.951160
      py      :     0.984832
      dz2     :     0.007668  d :     0.045134
      dxz     :     0.008928
      dyz     :     0.011187
      dx2y2   :     0.006661
      dxy     :     0.010690
  5 C s       :     2.994761  s :     2.994761
      pz      :     0.986692  p :     2.857401
      px      :     0.859479
      py      :     1.011230
      dz2     :     0.008851  d :     0.045619
      dxz     :     0.008456
      dyz     :     0.011130
      dx2y2   :     0.011480
      dxy     :     0.005703
  6 C s       :     3.059105  s :     3.059105
      pz      :     0.998431  p :     3.024855
      px      :     1.048696
      py      :     0.977729
      dz2     :     0.011523  d :     0.055502
      dxz     :     0.013062
      dyz     :     0.008189
      dx2y2   :     0.012618
      dxy     :     0.010109
  7 C s       :     3.254136  s :     3.254136
      pz      :     0.933656  p :     2.782219
      px      :     0.862142
      py      :     0.986421
      dz2     :     0.006720  d :     0.040860
      dxz     :     0.010965
      dyz     :     0.005302
      dx2y2   :     0.009296
      dxy     :     0.008577
  8 C s       :     2.945783  s :     2.945783
      pz      :     0.897711  p :     2.620586
      px      :     0.843501
      py      :     0.879374
      dz2     :     0.016227  d :     0.086568
      dxz     :     0.022784
      dyz     :     0.011274
      dx2y2   :     0.016811
      dxy     :     0.019472
  9 O s       :     3.798445  s :     3.798445
      pz      :     1.717576  p :     4.746148
      px      :     1.277234
      py      :     1.751338
      dz2     :     0.002025  d :     0.017834
      dxz     :     0.006097
      dyz     :     0.002759
      dx2y2   :     0.003278
      dxy     :     0.003676
 10 C s       :     3.000859  s :     3.000859
      pz      :     0.989121  p :     2.649475
      px      :     0.676927
      py      :     0.983427
      dz2     :     0.010632  d :     0.070759
      dxz     :     0.017388
      dyz     :     0.010665
      dx2y2   :     0.021658
      dxy     :     0.010416
 11 C s       :     3.028429  s :     3.028429
      pz      :     0.991073  p :     2.755360
      px      :     0.746717
      py      :     1.017570
      dz2     :     0.008715  d :     0.058984
      dxz     :     0.014349
      dyz     :     0.010838
      dx2y2   :     0.018227
      dxy     :     0.006854
 12 N s       :     3.476014  s :     3.476014
      pz      :     1.318317  p :     3.982814
      px      :     1.203941
      py      :     1.460556
      dz2     :     0.008330  d :     0.037070
      dxz     :     0.009879
      dyz     :     0.004615
      dx2y2   :     0.007565
      dxy     :     0.006680
 13 C s       :     3.094064  s :     3.094064
      pz      :     0.854644  p :     2.781611
      px      :     0.930392
      py      :     0.996575
      dz2     :     0.013664  d :     0.058303
      dxz     :     0.013441
      dyz     :     0.010444
      dx2y2   :     0.008650
      dxy     :     0.012104
 14 C s       :     3.114235  s :     3.114235
      pz      :     0.919395  p :     2.772152
      px      :     0.877462
      py      :     0.975294
      dz2     :     0.013206  d :     0.062344
      dxz     :     0.015387
      dyz     :     0.010785
      dx2y2   :     0.011511
      dxy     :     0.011454
 15 N s       :     3.574249  s :     3.574249
      pz      :     1.101260  p :     3.751098
      px      :     1.462213
      py      :     1.187625
      dz2     :     0.005627  d :     0.036354
      dxz     :     0.010640
      dyz     :     0.005131
      dx2y2   :     0.007385
      dxy     :     0.007570
 16 C s       :     3.048448  s :     3.048448
      pz      :     0.914488  p :     2.606726
      px      :     0.762439
      py      :     0.929799
      dz2     :     0.013884  d :     0.083800
      dxz     :     0.023878
      dyz     :     0.009073
      dx2y2   :     0.015057
      dxy     :     0.021908
 17 C s       :     3.177343  s :     3.177343
      pz      :     0.977411  p :     2.938041
      px      :     0.927786
      py      :     1.032844
      dz2     :     0.008863  d :     0.040956
      dxz     :     0.009128
      dyz     :     0.007286
      dx2y2   :     0.008943
      dxy     :     0.006736
 18 C s       :     3.174780  s :     3.174780
      pz      :     0.915614  p :     2.757586
      px      :     0.921580
      py      :     0.920393
      dz2     :     0.006681  d :     0.045040
      dxz     :     0.012215
      dyz     :     0.005622
      dx2y2   :     0.009769
      dxy     :     0.010753
 19 C s       :     3.027025  s :     3.027025
      pz      :     1.080633  p :     3.073962
      px      :     0.937554
      py      :     1.055775
      dz2     :     0.010354  d :     0.051867
      dxz     :     0.011637
      dyz     :     0.006971
      dx2y2   :     0.011779
      dxy     :     0.011125
 20 H s       :     0.705098  s :     0.705098
      pz      :     0.040997  p :     0.068794
      px      :     0.015002
      py      :     0.012795
 21 H s       :     0.888062  s :     0.888062
      pz      :     0.005065  p :     0.023777
      px      :     0.003062
      py      :     0.015650
 22 H s       :     0.903238  s :     0.903238
      pz      :     0.008459  p :     0.024519
      px      :     0.004013
      py      :     0.012047
 23 H s       :     0.936521  s :     0.936521
      pz      :     0.003769  p :     0.024178
      px      :     0.013968
      py      :     0.006440
 24 H s       :     0.920900  s :     0.920900
      pz      :     0.011558  p :     0.024614
      px      :     0.003674
      py      :     0.009382
 25 H s       :     0.924404  s :     0.924404
      pz      :     0.003816  p :     0.024585
      px      :     0.004830
      py      :     0.015939
 26 H s       :     0.938703  s :     0.938703
      pz      :     0.014142  p :     0.026175
      px      :     0.002883
      py      :     0.009149
 27 H s       :     0.930372  s :     0.930372
      pz      :     0.013161  p :     0.023707
      px      :     0.006300
      py      :     0.004246
 28 H s       :     0.926543  s :     0.926543
      pz      :     0.004700  p :     0.024610
      px      :     0.003088
      py      :     0.016821
 29 H s       :     0.916352  s :     0.916352
      pz      :     0.012642  p :     0.024512
      px      :     0.008206
      py      :     0.003664
 30 H s       :     0.913001  s :     0.913001
      pz      :     0.005063  p :     0.023997
      px      :     0.002603
      py      :     0.016332
 31 H s       :     0.916610  s :     0.916610
      pz      :     0.009837  p :     0.026731
      px      :     0.008057
      py      :     0.008836
 32 H s       :     0.928129  s :     0.928129
      pz      :     0.010254  p :     0.025851
      px      :     0.010071
      py      :     0.005526
 33 H s       :     0.915038  s :     0.915038
      pz      :     0.015076  p :     0.025878
      px      :     0.001506
      py      :     0.009296
 34 H s       :     0.942344  s :     0.942344
      pz      :     0.005971  p :     0.026219
      px      :     0.015835
      py      :     0.004413
 35 H s       :     0.922923  s :     0.922923
      pz      :     0.013746  p :     0.026395
      px      :     0.003024
      py      :     0.009625


                     *******************************
                     * LOEWDIN POPULATION ANALYSIS *
                     *******************************

----------------------
LOEWDIN ATOMIC CHARGES
----------------------
   0 O :   -0.276474
   1 C :    0.221874
   2 O :   -0.110785
   3 C :   -0.040125
   4 C :    0.005000
   5 C :   -0.002537
   6 C :   -0.004994
   7 C :   -0.052242
   8 C :    0.105530
   9 O :   -0.192202
  10 C :    0.129068
  11 C :    0.070056
  12 N :   -0.022923
  13 C :   -0.031288
  14 C :   -0.026713
  15 N :   -0.178486
  16 C :    0.063794
  17 C :   -0.094974
  18 C :    0.006392
  19 C :   -0.063242
  20 H :    0.115337
  21 H :    0.042715
  22 H :    0.030005
  23 H :    0.016613
  24 H :    0.026409
  25 H :    0.026141
  26 H :    0.033048
  27 H :    0.021427
  28 H :    0.013359
  29 H :    0.026019
  30 H :    0.029597
  31 H :    0.023268
  32 H :    0.017692
  33 H :    0.019232
  34 H :    0.022232
  35 H :    0.032179

-------------------------------
LOEWDIN REDUCED ORBITAL CHARGES
-------------------------------
  0 O s       :     3.555051  s :     3.555051
      pz      :     1.687876  p :     4.690094
      px      :     1.483240
      py      :     1.518978
      dz2     :     0.003393  d :     0.031329
      dxz     :     0.009093
      dyz     :     0.005329
      dx2y2   :     0.005793
      dxy     :     0.007721
  1 C s       :     2.845762  s :     2.845762
      pz      :     1.014016  p :     2.631084
      px      :     0.840948
      py      :     0.776121
      dz2     :     0.072442  d :     0.301279
      dxz     :     0.067600
      dyz     :     0.047928
      dx2y2   :     0.056536
      dxy     :     0.056772
  2 O s       :     3.435645  s :     3.435645
      pz      :     1.321787  p :     4.648065
      px      :     1.667343
      py      :     1.658934
      dz2     :     0.008049  d :     0.027076
      dxz     :     0.006646
      dyz     :     0.003534
      dx2y2   :     0.002673
      dxy     :     0.006173
  3 C s       :     2.836342  s :     2.836342
      pz      :     0.998373  p :     3.091850
      px      :     1.034401
      py      :     1.059076
      dz2     :     0.035666  d :     0.111933
      dxz     :     0.017142
      dyz     :     0.014309
      dx2y2   :     0.022593
      dxy     :     0.022223
  4 C s       :     2.836709  s :     2.836709
      pz      :     1.011598  p :     3.060184
      px      :     1.013757
      py      :     1.034829
      dz2     :     0.015950  d :     0.098107
      dxz     :     0.020102
      dyz     :     0.024672
      dx2y2   :     0.013499
      dxy     :     0.023883
  5 C s       :     2.823554  s :     2.823554
      pz      :     1.029321  p :     3.077497
      px      :     0.998050
      py      :     1.050126
      dz2     :     0.019459  d :     0.101486
      dxz     :     0.019252
      dyz     :     0.024250
      dx2y2   :     0.025725
      dxy     :     0.012801
  6 C s       :     2.843630  s :     2.843630
      pz      :     1.013479  p :     3.039768
      px      :     1.049468
      py      :     0.976821
      dz2     :     0.025380  d :     0.121595
      dxz     :     0.028724
      dyz     :     0.018436
      dx2y2   :     0.027764
      dxy     :     0.021292
  7 C s       :     2.848910  s :     2.848910
      pz      :     1.035019  p :     3.108098
      px      :     1.036956
      py      :     1.036124
      dz2     :     0.015065  d :     0.095234
      dxz     :     0.026006
      dyz     :     0.012061
      dx2y2   :     0.022733
      dxy     :     0.019369
  8 C s       :     2.830524  s :     2.830524
      pz      :     0.990745  p :     2.881550
      px      :     0.955628
      py      :     0.935177
      dz2     :     0.033676  d :     0.182396
      dxz     :     0.048557
      dyz     :     0.024447
      dx2y2   :     0.035824
      dxy     :     0.039892
  9 O s       :     3.442629  s :     3.442629
      pz      :     1.704946  p :     4.719621
      px      :     1.280762
      py      :     1.733913
      dz2     :     0.003276  d :     0.029953
      dxz     :     0.010014
      dyz     :     0.003500
      dx2y2   :     0.006430
      dxy     :     0.006732
 10 C s       :     2.839078  s :     2.839078
      pz      :     1.037988  p :     2.881666
      px      :     0.794019
      py      :     1.049658
      dz2     :     0.021531  d :     0.150189
      dxz     :     0.037786
      dyz     :     0.023455
      dx2y2   :     0.044488
      dxy     :     0.022930
 11 C s       :     2.827099  s :     2.827099
      pz      :     1.038669  p :     2.973160
      px      :     0.876876
      py      :     1.057615
      dz2     :     0.018011  d :     0.129685
      dxz     :     0.032745
      dyz     :     0.024033
      dx2y2   :     0.039523
      dxy     :     0.015373
 12 N s       :     3.056565  s :     3.056565
      pz      :     1.295042  p :     3.889687
      px      :     1.189602
      py      :     1.405044
      dz2     :     0.017322  d :     0.076671
      dxz     :     0.021204
      dyz     :     0.009033
      dx2y2   :     0.015337
      dxy     :     0.013775
 13 C s       :     2.851694  s :     2.851694
      pz      :     0.960020  p :     3.048507
      px      :     1.051352
      py      :     1.037136
      dz2     :     0.030797  d :     0.131087
      dxz     :     0.031439
      dyz     :     0.022990
      dx2y2   :     0.019979
      dxy     :     0.025881
 14 C s       :     2.857459  s :     2.857459
      pz      :     0.994500  p :     3.035328
      px      :     1.032215
      py      :     1.008614
      dz2     :     0.027042  d :     0.133926
      dxz     :     0.035119
      dyz     :     0.021277
      dx2y2   :     0.026372
      dxy     :     0.024115
 15 N s       :     3.243889  s :     3.243889
      pz      :     1.162635  p :     3.869161
      px      :     1.505935
      py      :     1.200591
      dz2     :     0.011639  d :     0.065436
      dxz     :     0.019810
      dyz     :     0.010289
      dx2y2   :     0.012727
      dxy     :     0.010971
 16 C s       :     2.840368  s :     2.840368
      pz      :     1.002911  p :     2.918306
      px      :     0.936297
      py      :     0.979099
      dz2     :     0.027808  d :     0.177531
      dxz     :     0.053013
      dyz     :     0.017185
      dx2y2   :     0.034119
      dxy     :     0.045406
 17 C s       :     2.848497  s :     2.848497
      pz      :     1.048772  p :     3.152806
      px      :     1.043874
      py      :     1.060160
      dz2     :     0.019203  d :     0.093671
      dxz     :     0.022270
      dyz     :     0.016743
      dx2y2   :     0.020393
      dxy     :     0.015062
 18 C s       :     2.848754  s :     2.848754
      pz      :     1.006823  p :     3.042993
      px      :     1.057185
      py      :     0.978985
      dz2     :     0.014569  d :     0.101861
      dxz     :     0.028244
      dyz     :     0.012108
      dx2y2   :     0.022890
      dxy     :     0.024051
 19 C s       :     2.835075  s :     2.835075
      pz      :     1.046067  p :     3.110543
      px      :     1.036375
      py      :     1.028101
      dz2     :     0.022737  d :     0.117624
      dxz     :     0.028006
      dyz     :     0.015416
      dx2y2   :     0.027276
      dxy     :     0.024188
 20 H s       :     0.710386  s :     0.710386
      pz      :     0.092393  p :     0.174276
      px      :     0.043927
      py      :     0.037957
 21 H s       :     0.886712  s :     0.886712
      pz      :     0.017665  p :     0.070573
      px      :     0.014015
      py      :     0.038893
 22 H s       :     0.901634  s :     0.901634
      pz      :     0.023481  p :     0.068361
      px      :     0.014069
      py      :     0.030811
 23 H s       :     0.916787  s :     0.916787
      pz      :     0.013585  p :     0.066600
      px      :     0.034692
      py      :     0.018323
 24 H s       :     0.906274  s :     0.906274
      pz      :     0.029998  p :     0.067317
      px      :     0.013245
      py      :     0.024074
 25 H s       :     0.907304  s :     0.907304
      pz      :     0.013871  p :     0.066555
      px      :     0.015467
      py      :     0.037217
 26 H s       :     0.896884  s :     0.896884
      pz      :     0.034894  p :     0.070067
      px      :     0.010412
      py      :     0.024761
 27 H s       :     0.914313  s :     0.914313
      pz      :     0.033154  p :     0.064260
      px      :     0.017746
      py      :     0.013360
 28 H s       :     0.919551  s :     0.919551
      pz      :     0.014591  p :     0.067090
      px      :     0.010649
      py      :     0.041851
 29 H s       :     0.907754  s :     0.907754
      pz      :     0.031593  p :     0.066227
      px      :     0.021566
      py      :     0.013067
 30 H s       :     0.904818  s :     0.904818
      pz      :     0.015736  p :     0.065586
      px      :     0.009691
      py      :     0.040159
 31 H s       :     0.903756  s :     0.903756
      pz      :     0.025856  p :     0.072975
      px      :     0.022325
      py      :     0.024794
 32 H s       :     0.913040  s :     0.913040
      pz      :     0.026674  p :     0.069268
      px      :     0.025446
      py      :     0.017148
 33 H s       :     0.910222  s :     0.910222
      pz      :     0.037992  p :     0.070546
      px      :     0.006950
      py      :     0.025604
 34 H s       :     0.905990  s :     0.905990
      pz      :     0.018222  p :     0.071777
      px      :     0.037915
      py      :     0.015640
 35 H s       :     0.897851  s :     0.897851
      pz      :     0.033663  p :     0.069970
      px      :     0.011257
      py      :     0.025050


                      *****************************
                      * MAYER POPULATION ANALYSIS *
                      *****************************

  NA   - Mulliken gross atomic population
  ZA   - Total nuclear charge
  QA   - Mulliken gross atomic charge
  VA   - Mayer's total valence
  BVA  - Mayer's bonded valence
  FA   - Mayer's free valence

  ATOM       NA         ZA         QA         VA         BVA        FA
  0 O      8.4099     8.0000    -0.4099     2.0634     2.0634     0.0000
  1 C      5.4770     6.0000     0.5230     4.0325     4.0325    -0.0000
  2 O      8.3597     8.0000    -0.3597     2.0595     2.0595    -0.0000
  3 C      6.1315     6.0000    -0.1315     3.6783     3.6783    -0.0000
  4 C      5.9896     6.0000     0.0104     3.9217     3.9217    -0.0000
  5 C      5.8978     6.0000     0.1022     3.8764     3.8764    -0.0000
  6 C      6.1395     6.0000    -0.1395     3.9160     3.9160    -0.0000
  7 C      6.0772     6.0000    -0.0772     3.9426     3.9426    -0.0000
  8 C      5.6529     6.0000     0.3471     3.7435     3.7435    -0.0000
  9 O      8.5624     8.0000    -0.5624     1.8784     1.8784     0.0000
 10 C      5.7211     6.0000     0.2789     3.8193     3.8193    -0.0000
 11 C      5.8428     6.0000     0.1572     3.8442     3.8442    -0.0000
 12 N      7.4959     7.0000    -0.4959     3.1401     3.1401    -0.0000
 13 C      5.9340     6.0000     0.0660     3.7657     3.7657     0.0000
 14 C      5.9487     6.0000     0.0513     3.9508     3.9508     0.0000
 15 N      7.3617     7.0000    -0.3617     3.0061     3.0061     0.0000
 16 C      5.7390     6.0000     0.2610     3.8746     3.8746     0.0000
 17 C      6.1563     6.0000    -0.1563     3.8387     3.8387     0.0000
 18 C      5.9774     6.0000     0.0226     3.9257     3.9257     0.0000
 19 C      6.1529     6.0000    -0.1529     3.8745     3.8745     0.0000
 20 H      0.7739     1.0000     0.2261     0.9997     0.9997    -0.0000
 21 H      0.9118     1.0000     0.0882     0.9717     0.9717    -0.0000
 22 H      0.9278     1.0000     0.0722     0.9870     0.9870    -0.0000
 23 H      0.9607     1.0000     0.0393     0.9780     0.9780    -0.0000
 24 H      0.9455     1.0000     0.0545     0.9725     0.9725    -0.0000
 25 H      0.9490     1.0000     0.0510     0.9808     0.9808     0.0000
 26 H      0.9649     1.0000     0.0351     1.0059     1.0059    -0.0000
 27 H      0.9541     1.0000     0.0459     0.9915     0.9915     0.0000
 28 H      0.9512     1.0000     0.0488     0.9866     0.9866    -0.0000
 29 H      0.9409     1.0000     0.0591     0.9971     0.9971     0.0000
 30 H      0.9370     1.0000     0.0630     0.9852     0.9852    -0.0000
 31 H      0.9433     1.0000     0.0567     0.9997     0.9997     0.0000
 32 H      0.9540     1.0000     0.0460     0.9977     0.9977     0.0000
 33 H      0.9409     1.0000     0.0591     1.0033     1.0033    -0.0000
 34 H      0.9686     1.0000     0.0314     0.9951     0.9951    -0.0000
 35 H      0.9493     1.0000     0.0507     1.0103     1.0103     0.0000

  Mayer bond orders larger than 0.100000
B(  0-O ,  1-C ) :   2.0072 B(  1-C ,  2-O ) :   1.1176 B(  1-C ,  3-C ) :   0.9285 
B(  2-O , 20-H ) :   0.9405 B(  3-C ,  4-C ) :   1.0111 B(  3-C , 19-C ) :   0.9450 
B(  3-C , 21-H ) :   0.9146 B(  4-C ,  5-C ) :   1.0463 B(  4-C , 22-H ) :   0.9713 
B(  4-C , 23-H ) :   0.9755 B(  5-C ,  6-C ) :   0.9772 B(  5-C , 24-H ) :   0.9519 
B(  5-C , 25-H ) :   0.9730 B(  6-C ,  7-C ) :   1.4566 B(  6-C , 19-C ) :   1.4235 
B(  7-C ,  8-C ) :   1.3891 B(  7-C , 26-H ) :   1.0169 B(  8-C ,  9-O ) :   0.9754 
B(  8-C , 17-C ) :   1.3581 B(  9-O , 10-C ) :   0.8558 B( 10-C , 11-C ) :   1.0263 
B( 10-C , 27-H ) :   0.9732 B( 10-C , 28-H ) :   0.9793 B( 11-C , 12-N ) :   0.8599 
B( 11-C , 29-H ) :   0.9809 B( 11-C , 30-H ) :   0.9750 B( 12-N , 13-C ) :   1.0936 
B( 12-N , 16-C ) :   1.1652 B( 13-C , 14-C ) :   1.6190 B( 13-C , 31-H ) :   0.9936 
B( 14-C , 15-N ) :   1.3085 B( 14-C , 32-H ) :   1.0062 B( 15-N , 16-C ) :   1.6542 
B( 16-C , 33-H ) :   0.9936 B( 17-C , 18-C ) :   1.3947 B( 17-C , 34-H ) :   1.0059 
B( 18-C , 19-C ) :   1.4659 B( 18-C , 35-H ) :   0.9987 

-------
TIMINGS
-------

Total SCF time: 0 days 0 hours 0 min 16 sec 

Total time                  ....      16.335 sec
Sum of individual times     ....      16.038 sec  ( 98.2%)

Fock matrix formation       ....      15.180 sec  ( 92.9%)
Diagonalization             ....       0.234 sec  (  1.4%)
Density matrix formation    ....       0.029 sec  (  0.2%)
Population analysis         ....       0.025 sec  (  0.2%)
Initial guess               ....       0.107 sec  (  0.7%)
Orbital Transformation      ....       0.000 sec  (  0.0%)
Orbital Orthonormalization  ....       0.000 sec  (  0.0%)
DIIS solution               ....       0.131 sec  (  0.8%)
SOSCF solution              ....       0.183 sec  (  1.1%)

Maximum memory used throughout the entire SCF-calculation: 237.0 MB

-------------------------   --------------------
FINAL SINGLE POINT ENERGY      -910.144952884939
-------------------------   --------------------


                            ***************************************
                            *     ORCA property calculations      *
                            ***************************************

                                    ---------------------
                                    Active property flags
                                    ---------------------
   (+) Dipole Moment


------------------------------------------------------------------------------
                       ORCA ELECTRIC PROPERTIES CALCULATION
------------------------------------------------------------------------------

Dipole Moment Calculation                       ... on
Quadrupole Moment Calculation                   ... off
Polarizability Calculation                      ... off
GBWName                                         ... ./ZINC000000000115/ZINC000000000115.gbw
Electron density                                ... ./ZINC000000000115/ZINC000000000115.scfp
The origin for moment calculation is the CENTER OF MASS  = ( 0.055593,  0.056309 -0.310001)

-------------
DIPOLE MOMENT
-------------
                                X             Y             Z
Electronic contribution:      0.77541       1.33412      -3.42628
Nuclear contribution   :     -1.68510      -0.66952       3.73700
                        -----------------------------------------
Total Dipole Moment    :     -0.90969       0.66460       0.31072
                        -----------------------------------------
Magnitude (a.u.)       :      1.16866
Magnitude (Debye)      :      2.97051



--------------------
Rotational spectrum 
--------------------
 
Rotational constants in cm-1:     0.025999     0.004282     0.003802 
Rotational constants in MHz :   779.432693   128.375902   113.993788 

 Dipole components along the rotational axes: 
x,y,z [a.u.] :     1.050158     0.259326     0.442371 
x,y,z [Debye]:     2.669290     0.659153     1.124418 

 

Timings for individual modules:

Sum of individual times         ...       16.967 sec (=   0.283 min)
GTO integral calculation        ...        0.396 sec (=   0.007 min)   2.3 %
SCF iterations                  ...       16.571 sec (=   0.276 min)  97.7 %
                             ****ORCA TERMINATED NORMALLY****
TOTAL RUN TIME: 0 days 0 hours 0 minutes 17 seconds 326 msec
