
                                 *****************
                                 * O   R   C   A *
                                 *****************

                                            #,                                       
                                            ###                                      
                                            ####                                     
                                            #####                                    
                                            ######                                   
                                           ########,                                 
                                     ,,################,,,,,                         
                               ,,#################################,,                 
                          ,,##########################################,,             
                       ,#########################################, ''#####,          
                    ,#############################################,,   '####,        
                  ,##################################################,,,,####,       
                ,###########''''           ''''###############################       
              ,#####''   ,,,,##########,,,,          '''####'''          '####       
            ,##' ,,,,###########################,,,                        '##       
           ' ,,###''''                  '''############,,,                           
         ,,##''                                '''############,,,,        ,,,,,,###''
      ,#''                                            '''#######################'''  
     '                                                          ''''####''''         
             ,#######,   #######,   ,#######,      ##                                
            ,#'     '#,  ##    ##  ,#'     '#,    #''#        ######   ,####,        
            ##       ##  ##   ,#'  ##            #'  '#       #        #'  '#        
            ##       ##  #######   ##           ,######,      #####,   #    #        
            '#,     ,#'  ##    ##  '#,     ,#' ,#      #,         ##   #,  ,#        
             '#######'   ##     ##  '#######'  #'      '#     #####' # '####'        



                  #######################################################
                  #                        -***-                        #
                  #          Department of theory and spectroscopy      #
                  #    Directorship and core code : Frank Neese         #
                  #        Max Planck Institute fuer Kohlenforschung    #
                  #                Kaiser Wilhelm Platz 1               #
                  #                 D-45470 Muelheim/Ruhr               #
                  #                      Germany                        #
                  #                                                     #
                  #                  All rights reserved                #
                  #                        -***-                        #
                  #######################################################


                         Program Version 5.0.3 -  RELEASE  -


 With contributions from (in alphabetic order):
   Daniel Aravena         : Magnetic Suceptibility
   Michael Atanasov       : Ab Initio Ligand Field Theory (pilot matlab implementation)
   Alexander A. Auer      : GIAO ZORA, VPT2 properties, NMR spectrum
   Ute Becker             : Parallelization
   Giovanni Bistoni       : ED, misc. LED, open-shell LED, HFLD
   Martin Brehm           : Molecular dynamics
   Dmytro Bykov           : SCF Hessian
   Vijay G. Chilkuri      : MRCI spin determinant printing, contributions to CSF-ICE
   Dipayan Datta          : RHF DLPNO-CCSD density
   Achintya Kumar Dutta   : EOM-CC, STEOM-CC
   Dmitry Ganyushin       : Spin-Orbit,Spin-Spin,Magnetic field MRCI
   Miquel Garcia          : C-PCM and meta-GGA Hessian, CC/C-PCM, Gaussian charge scheme
   Yang Guo               : DLPNO-NEVPT2, F12-NEVPT2, CIM, IAO-localization
   Andreas Hansen         : Spin unrestricted coupled pair/coupled cluster methods
   Benjamin Helmich-Paris : MC-RPA, TRAH-SCF, COSX integrals
   Lee Huntington         : MR-EOM, pCC
   Robert Izsak           : Overlap fitted RIJCOSX, COSX-SCS-MP3, EOM
   Marcus Kettner         : VPT2
   Christian Kollmar      : KDIIS, OOCD, Brueckner-CCSD(T), CCSD density, CASPT2, CASPT2-K
   Simone Kossmann        : Meta GGA functionals, TD-DFT gradient, OOMP2, MP2 Hessian
   Martin Krupicka        : Initial AUTO-CI
   Lucas Lang             : DCDCAS
   Marvin Lechner         : AUTO-CI (C++ implementation), FIC-MRCC
   Dagmar Lenk            : GEPOL surface, SMD
   Dimitrios Liakos       : Extrapolation schemes; Compound Job, initial MDCI parallelization
   Dimitrios Manganas     : Further ROCIS development; embedding schemes
   Dimitrios Pantazis     : SARC Basis sets
   Anastasios Papadopoulos: AUTO-CI, single reference methods and gradients
   Taras Petrenko         : DFT Hessian,TD-DFT gradient, ASA, ECA, R-Raman, ABS, FL, XAS/XES, NRVS
   Peter Pinski           : DLPNO-MP2, DLPNO-MP2 Gradient
   Christoph Reimann      : Effective Core Potentials
   Marius Retegan         : Local ZFS, SOC
   Christoph Riplinger    : Optimizer, TS searches, QM/MM, DLPNO-CCSD(T), (RO)-DLPNO pert. Triples
   Tobias Risthaus        : Range-separated hybrids, TD-DFT gradient, RPA, STAB
   Michael Roemelt        : Original ROCIS implementation
   Masaaki Saitow         : Open-shell DLPNO-CCSD energy and density
   Barbara Sandhoefer     : DKH picture change effects
   Avijit Sen             : IP-ROCIS
   Kantharuban Sivalingam : CASSCF convergence, NEVPT2, FIC-MRCI
   Bernardo de Souza      : ESD, SOC TD-DFT
   Georgi Stoychev        : AutoAux, RI-MP2 NMR, DLPNO-MP2 response
   Willem Van den Heuvel  : Paramagnetic NMR
   Boris Wezisla          : Elementary symmetry handling
   Frank Wennmohs         : Technical directorship


 We gratefully acknowledge several colleagues who have allowed us to
 interface, adapt or use parts of their codes:
   Stefan Grimme, W. Hujo, H. Kruse, P. Pracht,  : VdW corrections, initial TS optimization,
                  C. Bannwarth, S. Ehlert          DFT functionals, gCP, sTDA/sTD-DF
   Ed Valeev, F. Pavosevic, A. Kumar             : LibInt (2-el integral package), F12 methods
   Garnet Chan, S. Sharma, J. Yang, R. Olivares  : DMRG
   Ulf Ekstrom                                   : XCFun DFT Library
   Mihaly Kallay                                 : mrcc  (arbitrary order and MRCC methods)
   Jiri Pittner, Ondrej Demel                    : Mk-CCSD
   Frank Weinhold                                : gennbo (NPA and NBO analysis)
   Christopher J. Cramer and Donald G. Truhlar   : smd solvation model
   Lars Goerigk                                  : TD-DFT with DH, B97 family of functionals
   V. Asgeirsson, H. Jonsson                     : NEB implementation
   FAccTs GmbH                                   : IRC, NEB, NEB-TS, DLPNO-Multilevel, CI-OPT
                                                   MM, QMMM, 2- and 3-layer-ONIOM, Crystal-QMMM,
                                                   LR-CPCM, SF, NACMEs, symmetry and pop. for TD-DFT,
                                                   nearIR, NL-DFT gradient (VV10), updates on ESD,
                                                   ML-optimized integration grids
   S Lehtola, MJT Oliveira, MAL Marques          : LibXC Library
   Liviu Ungur et al                             : ANISO software


 Your calculation uses the libint2 library for the computation of 2-el integrals
 For citations please refer to: http://libint.valeyev.net

 Your ORCA version has been built with support for libXC version: 5.1.0
 For citations please refer to: https://tddft.org/programs/libxc/

 This ORCA versions uses:
   CBLAS   interface :  Fast vector & matrix operations
   LAPACKE interface :  Fast linear algebra routines
   SCALAPACK package :  Parallel linear algebra routines
   Shared memory     :  Shared parallel matrices
   BLAS/LAPACK       :  OpenBLAS 0.3.15  USE64BITINT DYNAMIC_ARCH NO_AFFINITY Zen SINGLE_THREADED
        Core in use  :  Zen
   Copyright (c) 2011-2014, The OpenBLAS Project


================================================================================

----- Orbital basis set information -----
Your calculation utilizes the basis: def2-SVP
   F. Weigend and R. Ahlrichs, Phys. Chem. Chem. Phys. 7, 3297 (2005).

================================================================================
                                        WARNINGS
                       Please study these warnings very carefully!
================================================================================


INFO   : the flag for use of the SHARK integral package has been found!

================================================================================
                                       INPUT FILE
================================================================================
NAME = ./ZINC000000000154/ZINC000000000154.inp
|  1> !RHF def2-SVP TightSCF PAL16 
|  2> *xyz 0 1
|  3> C 0.6107657743414452 4.861133961388186 -0.4212873118284581
|  4> O 1.2654326115572374 3.598203628676625 -0.4298596686268359
|  5> C 0.5153167087089416 2.5073998395051507 -0.09212573450390511
|  6> C -0.8226401601455788 2.5169298754024676 0.2862232652400947
|  7> C -1.4781295870120863 1.316455213025725 0.5931644537241462
|  8> C -0.8079964524696234 0.08765517675032077 0.5339813007064476
|  9> C 0.5453834108281772 0.09467732282635453 0.19137355657379257
| 10> C 1.1963995851785556 1.2915641366959478 -0.14188923860069097
| 11> C 1.2249480870361127 -1.2165152907364876 0.17891770107466162
| 12> C 2.683911888438982 -1.3107854045934717 -0.06772782109378364
| 13> C 3.136809353938265 -2.028045142059227 -1.178198148120786
| 14> C 4.506948897426295 -2.1377041987321816 -1.4153447173834737
| 15> C 5.41707452130741 -1.5449680701949242 -0.5380612335716777
| 16> C 4.9619027151002735 -0.8497981943280387 0.5840164413467677
| 17> C 3.592751362310704 -0.7367746767982574 0.8271858088695072
| 18> N 0.5990729123628764 -2.3294694294797242 0.3819814475905631
| 19> C -0.7410824475253572 -2.361309101306987 0.6594115325280406
| 20> O -1.3094867720576455 -3.4431357671468925 0.797972941436444
| 21> N -1.4432513379570895 -1.1569580906931316 0.7894038455491938
| 22> C -2.8667711329672088 -1.2496087568661853 1.0964161322491506
| 23> C -3.6858760692298316 -1.3798425953691278 -0.15777507502455326
| 24> C -5.191918511838684 -1.339596394826457 -0.06897573346312315
| 25> C -4.4531443896592995 -0.22166717540696493 -0.7473937521969382
| 26> H -0.213214090294744 4.883616986745501 -1.1421444182450369
| 27> H 0.2635768203036862 5.117838995434406 0.5849549175320377
| 28> H 1.3403176403663666 5.617920561660555 -0.7252474455126822
| 29> H -1.3939594394082975 3.438004112512915 0.345890642437184
| 30> H -2.523468499354613 1.3856183540311422 0.8713758486015937
| 31> H 2.237211001340073 1.302260997714007 -0.45342712959082887
| 32> H 2.427395406293525 -2.5046456866590048 -1.8501553869952214
| 33> H 4.865366579524465 -2.6935907567661435 -2.27806109853097
| 34> H 6.484820137962471 -1.6373175971404226 -0.7223379780361034
| 35> H 5.675542319913138 -0.4057523573355728 1.2735078249902712
| 36> H 3.244168497059676 -0.21466242854960027 1.7140427933082938
| 37> H -3.0430481957111617 -2.141019953036678 1.7112310793114764
| 38> H -3.1856379694894974 -0.40956948314019276 1.7218432017774883
| 39> H -3.272139493346408 -2.1203385186032664 -0.8360979983779736
| 40> H -5.6525245417107595 -1.137637739995673 0.8914118383802403
| 41> H -5.751798247694633 -2.0310993702916993 -0.6893748502912402
| 42> H -4.510052075343184 -0.1570823424636692 -1.8286735610770104
| 43> H -4.448976818082353 0.7396153601511434 -0.25014827215619423
| 44> *
| 45> 
| 46>                          ****END OF INPUT****
================================================================================

                       ****************************
                       * Single Point Calculation *
                       ****************************

---------------------------------
CARTESIAN COORDINATES (ANGSTROEM)
---------------------------------
  C      0.610766    4.861134   -0.421287
  O      1.265433    3.598204   -0.429860
  C      0.515317    2.507400   -0.092126
  C     -0.822640    2.516930    0.286223
  C     -1.478130    1.316455    0.593164
  C     -0.807996    0.087655    0.533981
  C      0.545383    0.094677    0.191374
  C      1.196400    1.291564   -0.141889
  C      1.224948   -1.216515    0.178918
  C      2.683912   -1.310785   -0.067728
  C      3.136809   -2.028045   -1.178198
  C      4.506949   -2.137704   -1.415345
  C      5.417075   -1.544968   -0.538061
  C      4.961903   -0.849798    0.584016
  C      3.592751   -0.736775    0.827186
  N      0.599073   -2.329469    0.381981
  C     -0.741082   -2.361309    0.659412
  O     -1.309487   -3.443136    0.797973
  N     -1.443251   -1.156958    0.789404
  C     -2.866771   -1.249609    1.096416
  C     -3.685876   -1.379843   -0.157775
  C     -5.191919   -1.339596   -0.068976
  C     -4.453144   -0.221667   -0.747394
  H     -0.213214    4.883617   -1.142144
  H      0.263577    5.117839    0.584955
  H      1.340318    5.617921   -0.725247
  H     -1.393959    3.438004    0.345891
  H     -2.523468    1.385618    0.871376
  H      2.237211    1.302261   -0.453427
  H      2.427395   -2.504646   -1.850155
  H      4.865367   -2.693591   -2.278061
  H      6.484820   -1.637318   -0.722338
  H      5.675542   -0.405752    1.273508
  H      3.244168   -0.214662    1.714043
  H     -3.043048   -2.141020    1.711231
  H     -3.185638   -0.409569    1.721843
  H     -3.272139   -2.120339   -0.836098
  H     -5.652525   -1.137638    0.891412
  H     -5.751798   -2.031099   -0.689375
  H     -4.510052   -0.157082   -1.828674
  H     -4.448977    0.739615   -0.250148

----------------------------
CARTESIAN COORDINATES (A.U.)
----------------------------
  NO LB      ZA    FRAG     MASS         X           Y           Z
   0 C     6.0000    0    12.011    1.154180    9.186212   -0.796118
   1 O     8.0000    0    15.999    2.391321    6.799619   -0.812317
   2 C     6.0000    0    12.011    0.973807    4.738299   -0.174092
   3 C     6.0000    0    12.011   -1.554565    4.756308    0.540884
   4 C     6.0000    0    12.011   -2.793260    2.487740    1.120918
   5 C     6.0000    0    12.011   -1.526892    0.165644    1.009078
   6 C     6.0000    0    12.011    1.030625    0.178914    0.361644
   7 C     6.0000    0    12.011    2.260868    2.440703   -0.268132
   8 C     6.0000    0    12.011    2.314816   -2.298881    0.338105
   9 C     6.0000    0    12.011    5.071858   -2.477025   -0.127987
  10 C     6.0000    0    12.011    5.927711   -3.832450   -2.226472
  11 C     6.0000    0    12.011    8.516899   -4.039675   -2.674614
  12 C     6.0000    0    12.011   10.236787   -2.919567   -1.016788
  13 C     6.0000    0    12.011    9.376637   -1.605886    1.103631
  14 C     6.0000    0    12.011    6.789316   -1.392302    1.563155
  15 N     7.0000    0    14.007    1.132084   -4.402059    0.721840
  16 C     6.0000    0    12.011   -1.400443   -4.462228    1.246107
  17 O     8.0000    0    15.999   -2.474571   -6.506584    1.507950
  18 N     7.0000    0    14.007   -2.727350   -2.186334    1.491757
  19 C     6.0000    0    12.011   -5.417412   -2.361418    2.071926
  20 C     6.0000    0    12.011   -6.965296   -2.607525   -0.298152
  21 C     6.0000    0    12.011   -9.811304   -2.531470   -0.130345
  22 C     6.0000    0    12.011   -8.415223   -0.418890   -1.412370
  23 H     1.0000    0     1.008   -0.402916    9.228699   -2.158340
  24 H     1.0000    0     1.008    0.498088    9.671314    1.105405
  25 H     1.0000    0     1.008    2.532833   10.616331   -1.370519
  26 H     1.0000    0     1.008   -2.634202    6.496886    0.653639
  27 H     1.0000    0     1.008   -4.768664    2.618439    1.646662
  28 H     1.0000    0     1.008    4.227716    2.460917   -0.856853
  29 H     1.0000    0     1.008    4.587113   -4.733094   -3.496287
  30 H     1.0000    0     1.008    9.194210   -5.090149   -4.304912
  31 H     1.0000    0     1.008   12.254534   -3.094082   -1.365021
  32 H     1.0000    0     1.008   10.725221   -0.766761    2.406581
  33 H     1.0000    0     1.008    6.130590   -0.405653    3.239071
  34 H     1.0000    0     1.008   -5.750528   -4.045941    3.233758
  35 H     1.0000    0     1.008   -6.019983   -0.773974    3.253812
  36 H     1.0000    0     1.008   -6.183448   -4.006859   -1.579996
  37 H     1.0000    0     1.008  -10.681723   -2.149824    1.684524
  38 H     1.0000    0     1.008  -10.869323   -3.838222   -1.302730
  39 H     1.0000    0     1.008   -8.522763   -0.296843   -3.455692
  40 H     1.0000    0     1.008   -8.407348    1.397670   -0.472712

--------------------------------
INTERNAL COORDINATES (ANGSTROEM)
--------------------------------
 C      0   0   0     0.000000000000     0.00000000     0.00000000
 O      1   0   0     1.422552346430     0.00000000     0.00000000
 C      2   1   0     1.366232404986   117.04271021     0.00000000
 C      3   2   1     1.390455813791   126.16425563   358.60045821
 C      4   3   2     1.401791245846   120.24273658   179.25233726
 C      5   4   3     1.400903491595   121.21447306     0.31285193
 C      6   5   4     1.396089693127   118.01347621     1.55578906
 C      3   2   1     1.394491573006   114.78013576   178.77609162
 C      7   6   5     1.476885021709   116.33772063   178.25513574
 C      9   7   6     1.482665249399   120.70576886   184.78044847
 C     10   9   7     1.397398294135   118.93063048   241.02691746
 C     11  10   9     1.394828295043   119.59235080   180.68601123
 C     12  11  10     1.396170147327   120.00837945     0.68144196
 C     13  12  11     1.396245264282   120.25388005     0.49110824
 C     14  13  12     1.395163461270   120.02137754   359.52896515
 N      9   7   6     1.292912036593   122.69521699     4.57188219
 C     16   9   7     1.368940322062   121.71901004   358.22531601
 O     17  16   9     1.229890920004   119.71796744   177.34533950
 N     17  16   9     1.400143031587   119.32494704   356.95402110
 C     19  17  16     1.459194742628   117.01061066   180.49994900
 C     20  19  17     1.503625396734   111.18857748   272.96020312
 C     21  20  19     1.509194791490   119.48709619   186.56947774
 C     22  21  20     1.501933404441    60.15979487   112.52615239
 H      1   2   3     1.095026607725   111.13424650   298.62064895
 H      1   2   3     1.094970807126   111.07513649    62.97972276
 H      1   2   3     1.094241128107   107.78839127   180.78004121
 H      4   3   2     1.085515391428   121.81728207   359.81020755
 H      5   4   3     1.083936604221   116.90513065   180.63371403
 H      8   3   2     1.086489155201   118.00342959   358.97677247
 H     11  10   9     1.087171908716   120.31129970     0.22902776
 H     12  11  10     1.087084474429   119.93380452   180.05698548
 H     13  12  11     1.087458990290   119.83637466   179.63058103
 H     14  13  12     1.087132263814   119.93768763   178.88430637
 H     15  14  13     1.086566392157   119.73680142   178.58006456
 H     20  19  17     1.097125764276   109.04053837    31.97043738
 H     20  19  17     1.094760731911   110.83163508   146.90927301
 H     21  20  19     1.086109642208   111.86837285    46.61612155
 H     22  21  20     1.084107698140   118.75567513     4.83420389
 H     22  21  20     1.084682786745   117.67375161   220.65023267
 H     23  22  21     1.084700746947   117.95540827   107.35477009
 H     23  22  21     1.082282102431   117.09560755   249.25598675

---------------------------
INTERNAL COORDINATES (A.U.)
---------------------------
 C      0   0   0     0.000000000000     0.00000000     0.00000000
 O      1   0   0     2.688234345920     0.00000000     0.00000000
 C      2   1   0     2.581805080713   117.04271021     0.00000000
 C      3   2   1     2.627580689384   126.16425563   358.60045821
 C      4   3   2     2.649001551577   120.24273658   179.25233726
 C      5   4   3     2.647323939169   121.21447306     0.31285193
 C      6   5   4     2.638227178400   118.01347621     1.55578906
 C      3   2   1     2.635207169043   114.78013576   178.77609162
 C      7   6   5     2.790908222320   116.33772063   178.25513574
 C      9   7   6     2.801831269647   120.70576886   184.78044847
 C     10   9   7     2.640700075925   118.93063048   241.02691746
 C     11  10   9     2.635843481476   119.59235080   180.68601123
 C     12  11  10     2.638379214805   120.00837945     0.68144196
 C     13  12  11     2.638521165277   120.25388005     0.49110824
 C     14  13  12     2.636476853853   120.02137754   359.52896515
 N      9   7   6     2.443249664411   122.69521699     4.57188219
 C     16   9   7     2.586922302379   121.71901004   358.22531601
 O     17  16   9     2.324157013404   119.71796744   177.34533950
 N     17  16   9     2.645886878017   119.32494704   356.95402110
 C     19  17  16     2.757478439624   117.01061066   180.49994900
 C     20  19  17     2.841440207836   111.18857748   272.96020312
 C     21  20  19     2.851964838656   119.48709619   186.56947774
 C     22  21  20     2.838242805782    60.15979487   112.52615239
 H      1   2   3     2.069300397958   111.13424650   298.62064895
 H      1   2   3     2.069194950107   111.07513649    62.97972276
 H      1   2   3     2.067816056596   107.78839127   180.78004121
 H      4   3   2     2.051326803956   121.81728207   359.81020755
 H      5   4   3     2.048343328511   116.90513065   180.63371403
 H      8   3   2     2.053166950806   118.00342959   358.97677247
 H     11  10   9     2.054457167966   120.31129970     0.22902776
 H     12  11  10     2.054291941108   119.93380452   180.05698548
 H     13  12  11     2.054999673520   119.83637466   179.63058103
 H     14  13  12     2.054382249959   119.93768763   178.88430637
 H     15  14  13     2.053312907500   119.73680142   178.58006456
 H     20  19  17     2.073267228951   109.04053837    31.97043738
 H     20  19  17     2.068797965483   110.83163508   146.90927301
 H     21  20  19     2.052449775184   111.86837285    46.61612155
 H     22  21  20     2.048666649161   118.75567513     4.83420389
 H     22  21  20     2.049753409126   117.67375161   220.65023267
 H     23  22  21     2.049787348990   117.95540827   107.35477009
 H     23  22  21     2.045216773239   117.09560755   249.25598675

---------------------
BASIS SET INFORMATION
---------------------
There are 4 groups of distinct atoms

 Group   1 Type C   : 7s4p1d contracted to 3s2p1d pattern {511/31/1}
 Group   2 Type O   : 7s4p1d contracted to 3s2p1d pattern {511/31/1}
 Group   3 Type N   : 7s4p1d contracted to 3s2p1d pattern {511/31/1}
 Group   4 Type H   : 4s1p contracted to 2s1p pattern {31/1}

Atom   0C    basis set group =>   1
Atom   1O    basis set group =>   2
Atom   2C    basis set group =>   1
Atom   3C    basis set group =>   1
Atom   4C    basis set group =>   1
Atom   5C    basis set group =>   1
Atom   6C    basis set group =>   1
Atom   7C    basis set group =>   1
Atom   8C    basis set group =>   1
Atom   9C    basis set group =>   1
Atom  10C    basis set group =>   1
Atom  11C    basis set group =>   1
Atom  12C    basis set group =>   1
Atom  13C    basis set group =>   1
Atom  14C    basis set group =>   1
Atom  15N    basis set group =>   3
Atom  16C    basis set group =>   1
Atom  17O    basis set group =>   2
Atom  18N    basis set group =>   3
Atom  19C    basis set group =>   1
Atom  20C    basis set group =>   1
Atom  21C    basis set group =>   1
Atom  22C    basis set group =>   1
Atom  23H    basis set group =>   4
Atom  24H    basis set group =>   4
Atom  25H    basis set group =>   4
Atom  26H    basis set group =>   4
Atom  27H    basis set group =>   4
Atom  28H    basis set group =>   4
Atom  29H    basis set group =>   4
Atom  30H    basis set group =>   4
Atom  31H    basis set group =>   4
Atom  32H    basis set group =>   4
Atom  33H    basis set group =>   4
Atom  34H    basis set group =>   4
Atom  35H    basis set group =>   4
Atom  36H    basis set group =>   4
Atom  37H    basis set group =>   4
Atom  38H    basis set group =>   4
Atom  39H    basis set group =>   4
Atom  40H    basis set group =>   4


           ************************************************************
           *        Program running with 16 parallel MPI-processes    *
           *              working on a common directory               *
           ************************************************************
------------------------------------------------------------------------------
                           ORCA GTO INTEGRAL CALCULATION
------------------------------------------------------------------------------
------------------------------------------------------------------------------
                   ___                                                        
                  /   \      - P O W E R E D   B Y -                         
                 /     \                                                     
                 |  |  |   _    _      __       _____    __    __             
                 |  |  |  | |  | |    /  \     |  _  \  |  |  /  |          
                  \  \/   | |  | |   /    \    | | | |  |  | /  /          
                 / \  \   | |__| |  /  /\  \   | |_| |  |  |/  /          
                |  |  |   |  __  | /  /__\  \  |    /   |      \           
                |  |  |   | |  | | |   __   |  |    \   |  |\   \          
                \     /   | |  | | |  |  |  |  | |\  \  |  | \   \       
                 \___/    |_|  |_| |__|  |__|  |_| \__\ |__|  \__/        
                                                                              
                      - O R C A' S   B I G   F R I E N D -                    
                                      &                                       
                       - I N T E G R A L  F E E D E R -                       
                                                                              
 v1 FN, 2020, v2 2021                                                         
------------------------------------------------------------------------------


Reading SHARK input file ./ZINC000000000154/ZINC000000000154.SHARKINP.tmp ... ok
----------------------
SHARK INTEGRAL PACKAGE
----------------------

Number of atoms                             ...     41
Number of basis functions                   ...    412
Number of shells                            ...    192
Maximum angular momentum                    ...      2
Integral batch strategy                     ... SHARK/LIBINT Hybrid
RI-J (if used) integral strategy            ... SPLIT-RIJ (Revised 2003 algorithm where possible)
Printlevel                                  ...      1
Contraction scheme used                     ... SEGMENTED contraction
Coulomb Range Separation                    ... NOT USED
Exchange Range Separation                   ... NOT USED
Finite Nucleus Model                        ... NOT USED
Auxiliary Coulomb fitting basis             ... NOT available
Auxiliary J/K fitting basis                 ... NOT available
Auxiliary Correlation fitting basis         ... NOT available
Auxiliary 'external' fitting basis          ... NOT available
Integral threshold                          ...     2.500000e-11
Primitive cut-off                           ...     2.500000e-12
Primitive pair pre-selection threshold      ...     2.500000e-12

Calculating pre-screening integrals         ... done (  0.0 sec) Dimension = 192
Organizing shell pair data                  ... done (  0.1 sec)
Shell pair information
Total number of shell pairs                 ...     18528
Shell pairs after pre-screening             ...     13139
Total number of primitive shell pairs       ...     67514
Primitive shell pairs kept                  ...     30401
          la=0 lb=0:   4035 shell pairs
          la=1 lb=0:   4880 shell pairs
          la=1 lb=1:   1521 shell pairs
          la=2 lb=0:   1580 shell pairs
          la=2 lb=1:    968 shell pairs
          la=2 lb=2:    155 shell pairs

Calculating one electron integrals          ... done (  0.0 sec)
Calculating Nuclear repulsion               ... done (  0.0 sec) ENN=   1825.995561348635 Eh

SHARK setup successfully completed in   0.2 seconds

Maximum memory used throughout the entire GTOINT-calculation: 19.9 MB


           ************************************************************
           *        Program running with 16 parallel MPI-processes    *
           *              working on a common directory               *
           ************************************************************
-------------------------------------------------------------------------------
                                 ORCA SCF
-------------------------------------------------------------------------------

------------
SCF SETTINGS
------------
Hamiltonian:
 Ab initio Hamiltonian  Method          .... Hartree-Fock(GTOs)


General Settings:
 Integral files         IntName         .... ./ZINC000000000154/ZINC000000000154
 Hartree-Fock type      HFTyp           .... RHF
 Total Charge           Charge          ....    0
 Multiplicity           Mult            ....    1
 Number of Electrons    NEL             ....  162
 Basis Dimension        Dim             ....  412
 Nuclear Repulsion      ENuc            ....   1825.9955613486 Eh

Convergence Acceleration:
 DIIS                   CNVDIIS         .... on
   Start iteration      DIISMaxIt       ....    12
   Startup error        DIISStart       ....  0.200000
   # of expansion vecs  DIISMaxEq       ....     5
   Bias factor          DIISBfac        ....   1.050
   Max. coefficient     DIISMaxC        ....  10.000
 Trust-Rad. Augm. Hess. CNVTRAH         .... auto
   Auto Start mean grad. ratio tolernc. ....  1.125000
   Auto Start start iteration           ....    20
   Auto Start num. interpolation iter.  ....    10
   Max. Number of Micro iterations      ....    16
   Max. Number of Macro iterations      .... Maxiter - #DIIS iter
   Number of Davidson start vectors     ....     2
   Converg. threshold I  (grad. norm)   ....   1.000e-05
   Converg. threshold II (energy diff.) ....   1.000e-08
   Grad. Scal. Fac. for Micro threshold ....   0.100
   Minimum threshold for Micro iter.    ....   0.010
   NR start threshold (gradient norm)   ....   0.001
   Initial trust radius                 ....   0.400
   Minimum AH scaling param. (alpha)    ....   1.000
   Maximum AH scaling param. (alpha)    .... 1000.000
   Orbital update algorithm             .... Taylor
   White noise on init. David. guess    .... on
   Maximum white noise                  ....   0.010
   Quad. conv. algorithm                .... NR
 SOSCF                  CNVSOSCF        .... on
   Start iteration      SOSCFMaxIt      ....   150
   Startup grad/error   SOSCFStart      ....  0.003300
 Level Shifting         CNVShift        .... on
   Level shift para.    LevelShift      ....    0.2500
   Turn off err/grad.   ShiftErr        ....    0.0010
 Zerner damping         CNVZerner       .... off
 Static damping         CNVDamp         .... on
   Fraction old density DampFac         ....    0.7000
   Max. Damping (<1)    DampMax         ....    0.9800
   Min. Damping (>=0)   DampMin         ....    0.0000
   Turn off err/grad.   DampErr         ....    0.1000
 Fernandez-Rico         CNVRico         .... off

SCF Procedure:
 Maximum # iterations   MaxIter         ....   125
 SCF integral mode      SCFMode         .... Direct
   Integral package                     .... SHARK and LIBINT hybrid scheme
 Reset frequency        DirectResetFreq ....    20
 Integral Threshold     Thresh          ....  2.500e-11 Eh
 Primitive CutOff       TCut            ....  2.500e-12 Eh

Convergence Tolerance:
 Convergence Check Mode ConvCheckMode   .... Total+1el-Energy
 Convergence forced     ConvForced      .... 0
 Energy Change          TolE            ....  1.000e-08 Eh
 1-El. energy change                    ....  1.000e-05 Eh
 Orbital Gradient       TolG            ....  1.000e-05
 Orbital Rotation angle TolX            ....  1.000e-05
 DIIS Error             TolErr          ....  5.000e-07


Diagonalization of the overlap matrix:
Smallest eigenvalue                        ... 1.978e-04
Time for diagonalization                   ...    0.022 sec
Threshold for overlap eigenvalues          ... 1.000e-08
Number of eigenvalues below threshold      ... 0
Time for construction of square roots      ...    0.011 sec
Total time needed                          ...    0.034 sec

Time for model grid setup =    0.175 sec

------------------------------
INITIAL GUESS: MODEL POTENTIAL
------------------------------
Loading Hartree-Fock densities                     ... done
Calculating cut-offs                               ... done
Initializing the effective Hamiltonian             ... done
Setting up the integral package (SHARK)            ... done
Starting the Coulomb interaction                   ... done (   0.1 sec)
Reading the grid                                   ... done
Mapping shells                                     ... done
Starting the XC term evaluation                    ... done (   0.0 sec)
Transforming the Hamiltonian                       ... done (   0.0 sec)
Diagonalizing the Hamiltonian                      ... done (   0.0 sec)
Back transforming the eigenvectors                 ... done (   0.0 sec)
Now organizing SCF variables                       ... done
                      ------------------
                      INITIAL GUESS DONE (   0.3 sec)
                      ------------------
--------------
SCF ITERATIONS
--------------
ITER       Energy         Delta-E        Max-DP      RMS-DP      [F,P]     Damp
               ***  Starting incremental Fock matrix formation  ***
  0   -987.1159836747   0.000000000000 0.07717164  0.00197468  0.2762919 0.7000
  1   -987.3592775311  -0.243293856386 0.06179504  0.00155120  0.1657014 0.7000
                               ***Turning on DIIS***
  2   -987.5104616069  -0.151184075813 0.15565359  0.00363476  0.0912832 0.0000
  3   -986.6248143901   0.885647216820 0.04954830  0.00065333  0.0578896 0.0000
  4   -987.9353161937  -1.310501803669 0.01346408  0.00026361  0.0122456 0.0000
  5   -987.8614410616   0.073875132146 0.00593063  0.00012090  0.0077004 0.0000
                      *** Initiating the SOSCF procedure ***
                           *** Shutting down DIIS ***
                      *** Re-Reading the Fockian *** 
                      *** Removing any level shift *** 
ITER      Energy       Delta-E        Grad      Rot      Max-DP    RMS-DP
  6   -987.82848666   0.0329544052  0.002925  0.002925  0.003287  0.000064
               *** Restarting incremental Fock matrix formation ***
  7   -987.83553308  -0.0070464246  0.001689  0.004740  0.001925  0.000039
  8   -987.83559937  -0.0000662843  0.000887  0.006134  0.002700  0.000053
  9   -987.83563008  -0.0000307150  0.000188  0.000419  0.000544  0.000009
 10   -987.83563194  -0.0000018620  0.000091  0.000181  0.000204  0.000003
 11   -987.83563250  -0.0000005548  0.000047  0.000150  0.000116  0.000002
 12   -987.83563261  -0.0000001178  0.000027  0.000125  0.000056  0.000001
 13   -987.83563263  -0.0000000194  0.000005  0.000014  0.000023  0.000000
                 **** Energy Check signals convergence ****
              ***Rediagonalizing the Fockian in SOSCF/NRSCF***

               *****************************************************
               *                     SUCCESS                       *
               *           SCF CONVERGED AFTER  14 CYCLES          *
               *****************************************************


----------------
TOTAL SCF ENERGY
----------------

Total Energy       :         -987.83563263 Eh          -26880.37414 eV

Components:
Nuclear Repulsion  :         1825.99556135 Eh           49687.86531 eV
Electronic Energy  :        -2813.83119398 Eh          -76568.23944 eV
One Electron Energy:        -4971.67615459 Eh         -135286.18598 eV
Two Electron Energy:         2157.84496060 Eh           58717.94654 eV

Virial components:
Potential Energy   :        -1970.79639208 Eh          -53628.09623 eV
Kinetic Energy     :          982.96075945 Eh           26747.72209 eV
Virial Ratio       :            2.00495938


---------------
SCF CONVERGENCE
---------------

  Last Energy change         ...    1.4784e-09  Tolerance :   1.0000e-08
  Last MAX-Density change    ...    1.2476e-05  Tolerance :   1.0000e-07
  Last RMS-Density change    ...    1.4389e-07  Tolerance :   5.0000e-09
  Last Orbital Gradient      ...    1.4867e-06  Tolerance :   1.0000e-05
  Last Orbital Rotation      ...    5.1268e-06  Tolerance :   1.0000e-05

             **** THE GBW FILE WAS UPDATED (./ZINC000000000154/ZINC000000000154.gbw) ****
             **** DENSITY ./ZINC000000000154/ZINC000000000154.scfp WAS UPDATED ****
             **** ENERGY FILE WAS UPDATED (./ZINC000000000154/ZINC000000000154.en.tmp) ****
             **** THE GBW FILE WAS UPDATED (./ZINC000000000154/ZINC000000000154.gbw) ****
             **** DENSITY ./ZINC000000000154/ZINC000000000154.scfp WAS UPDATED ****
----------------
ORBITAL ENERGIES
----------------

  NO   OCC          E(Eh)            E(eV) 
   0   2.0000     -20.589091      -560.2577 
   1   2.0000     -20.497922      -557.7768 
   2   2.0000     -15.611526      -424.8112 
   3   2.0000     -15.559887      -423.4060 
   4   2.0000     -11.371203      -309.4262 
   5   2.0000     -11.326303      -308.2044 
   6   2.0000     -11.315293      -307.9048 
   7   2.0000     -11.312007      -307.8154 
   8   2.0000     -11.305342      -307.6340 
   9   2.0000     -11.273023      -306.7546 
  10   2.0000     -11.268842      -306.6408 
  11   2.0000     -11.268014      -306.6183 
  12   2.0000     -11.263097      -306.4845 
  13   2.0000     -11.262259      -306.4617 
  14   2.0000     -11.256107      -306.2942 
  15   2.0000     -11.253142      -306.2136 
  16   2.0000     -11.249973      -306.1273 
  17   2.0000     -11.249070      -306.1028 
  18   2.0000     -11.248011      -306.0739 
  19   2.0000     -11.246578      -306.0350 
  20   2.0000     -11.236016      -305.7475 
  21   2.0000     -11.235045      -305.7211 
  22   2.0000     -11.231141      -305.6149 
  23   2.0000      -1.404139       -38.2086 
  24   2.0000      -1.370585       -37.2955 
  25   2.0000      -1.269525       -34.5455 
  26   2.0000      -1.228316       -33.4242 
  27   2.0000      -1.159913       -31.5628 
  28   2.0000      -1.152468       -31.3603 
  29   2.0000      -1.136603       -30.9285 
  30   2.0000      -1.055117       -28.7112 
  31   2.0000      -1.032514       -28.0961 
  32   2.0000      -1.027902       -27.9706 
  33   2.0000      -1.015237       -27.6260 
  34   2.0000      -0.967503       -26.3271 
  35   2.0000      -0.946911       -25.7668 
  36   2.0000      -0.906272       -24.6609 
  37   2.0000      -0.861727       -23.4488 
  38   2.0000      -0.848808       -23.0972 
  39   2.0000      -0.830442       -22.5975 
  40   2.0000      -0.818040       -22.2600 
  41   2.0000      -0.807341       -21.9689 
  42   2.0000      -0.785565       -21.3763 
  43   2.0000      -0.767672       -20.8894 
  44   2.0000      -0.738343       -20.0913 
  45   2.0000      -0.725741       -19.7484 
  46   2.0000      -0.702706       -19.1216 
  47   2.0000      -0.685022       -18.6404 
  48   2.0000      -0.673744       -18.3335 
  49   2.0000      -0.670375       -18.2418 
  50   2.0000      -0.658926       -17.9303 
  51   2.0000      -0.652995       -17.7689 
  52   2.0000      -0.643354       -17.5066 
  53   2.0000      -0.640997       -17.4424 
  54   2.0000      -0.627710       -17.0809 
  55   2.0000      -0.613545       -16.6954 
  56   2.0000      -0.605528       -16.4773 
  57   2.0000      -0.600686       -16.3455 
  58   2.0000      -0.597656       -16.2630 
  59   2.0000      -0.595141       -16.1946 
  60   2.0000      -0.570937       -15.5360 
  61   2.0000      -0.557466       -15.1694 
  62   2.0000      -0.551558       -15.0087 
  63   2.0000      -0.545993       -14.8572 
  64   2.0000      -0.524677       -14.2772 
  65   2.0000      -0.518235       -14.1019 
  66   2.0000      -0.515041       -14.0150 
  67   2.0000      -0.512402       -13.9432 
  68   2.0000      -0.508891       -13.8476 
  69   2.0000      -0.507139       -13.7999 
  70   2.0000      -0.498804       -13.5731 
  71   2.0000      -0.458053       -12.4643 
  72   2.0000      -0.437311       -11.8998 
  73   2.0000      -0.431896       -11.7525 
  74   2.0000      -0.421167       -11.4605 
  75   2.0000      -0.416938       -11.3455 
  76   2.0000      -0.408734       -11.1222 
  77   2.0000      -0.361001        -9.8233 
  78   2.0000      -0.345844        -9.4109 
  79   2.0000      -0.342812        -9.3284 
  80   2.0000      -0.304254        -8.2792 
  81   0.0000       0.053001         1.4422 
  82   0.0000       0.110601         3.0096 
  83   0.0000       0.120093         3.2679 
  84   0.0000       0.136345         3.7101 
  85   0.0000       0.164170         4.4673 
  86   0.0000       0.164961         4.4888 
  87   0.0000       0.179455         4.8832 
  88   0.0000       0.183472         4.9925 
  89   0.0000       0.196934         5.3589 
  90   0.0000       0.214234         5.8296 
  91   0.0000       0.217212         5.9106 
  92   0.0000       0.229152         6.2355 
  93   0.0000       0.235453         6.4070 
  94   0.0000       0.237382         6.4595 
  95   0.0000       0.239359         6.5133 
  96   0.0000       0.251696         6.8490 
  97   0.0000       0.255474         6.9518 
  98   0.0000       0.257931         7.0187 
  99   0.0000       0.263003         7.1567 
 100   0.0000       0.267989         7.2924 
 101   0.0000       0.275545         7.4980 
 102   0.0000       0.282648         7.6912 
 103   0.0000       0.287233         7.8160 
 104   0.0000       0.296640         8.0720 
 105   0.0000       0.307750         8.3743 
 106   0.0000       0.324581         8.8323 
 107   0.0000       0.332957         9.0602 
 108   0.0000       0.349786         9.5182 
 109   0.0000       0.353191         9.6108 
 110   0.0000       0.371134        10.0991 
 111   0.0000       0.384835        10.4719 
 112   0.0000       0.399106        10.8602 
 113   0.0000       0.401021        10.9123 
 114   0.0000       0.413773        11.2593 
 115   0.0000       0.428655        11.6643 
 116   0.0000       0.430193        11.7062 
 117   0.0000       0.435609        11.8535 
 118   0.0000       0.445289        12.1169 
 119   0.0000       0.450487        12.2584 
 120   0.0000       0.464120        12.6294 
 121   0.0000       0.467805        12.7296 
 122   0.0000       0.470479        12.8024 
 123   0.0000       0.480300        13.0696 
 124   0.0000       0.484318        13.1790 
 125   0.0000       0.496057        13.4984 
 126   0.0000       0.520399        14.1608 
 127   0.0000       0.532096        14.4791 
 128   0.0000       0.537197        14.6179 
 129   0.0000       0.551758        15.0141 
 130   0.0000       0.555253        15.1092 
 131   0.0000       0.567658        15.4468 
 132   0.0000       0.582277        15.8446 
 133   0.0000       0.585702        15.9378 
 134   0.0000       0.592197        16.1145 
 135   0.0000       0.609201        16.5772 
 136   0.0000       0.612332        16.6624 
 137   0.0000       0.616426        16.7738 
 138   0.0000       0.625635        17.0244 
 139   0.0000       0.635626        17.2963 
 140   0.0000       0.638201        17.3663 
 141   0.0000       0.653779        17.7902 
 142   0.0000       0.660454        17.9719 
 143   0.0000       0.672167        18.2906 
 144   0.0000       0.676039        18.3960 
 145   0.0000       0.679555        18.4916 
 146   0.0000       0.685500        18.6534 
 147   0.0000       0.693877        18.8814 
 148   0.0000       0.696036        18.9401 
 149   0.0000       0.700035        19.0489 
 150   0.0000       0.715423        19.4676 
 151   0.0000       0.720537        19.6068 
 152   0.0000       0.726120        19.7587 
 153   0.0000       0.738646        20.0996 
 154   0.0000       0.757409        20.6101 
 155   0.0000       0.767308        20.8795 
 156   0.0000       0.769971        20.9520 
 157   0.0000       0.790515        21.5110 
 158   0.0000       0.793982        21.6053 
 159   0.0000       0.812700        22.1147 
 160   0.0000       0.815466        22.1900 
 161   0.0000       0.816785        22.2258 
 162   0.0000       0.833569        22.6826 
 163   0.0000       0.836861        22.7721 
 164   0.0000       0.841073        22.8868 
 165   0.0000       0.848683        23.0938 
 166   0.0000       0.852908        23.2088 
 167   0.0000       0.860655        23.4196 
 168   0.0000       0.865009        23.5381 
 169   0.0000       0.866179        23.5699 
 170   0.0000       0.871951        23.7270 
 171   0.0000       0.874213        23.7885 
 172   0.0000       0.878119        23.8948 
 173   0.0000       0.880757        23.9666 
 174   0.0000       0.885629        24.0992 
 175   0.0000       0.887534        24.1510 
 176   0.0000       0.890999        24.2453 
 177   0.0000       0.899272        24.4704 
 178   0.0000       0.902807        24.5666 
 179   0.0000       0.904419        24.6105 
 180   0.0000       0.910293        24.7703 
 181   0.0000       0.912174        24.8215 
 182   0.0000       0.917266        24.9601 
 183   0.0000       0.920658        25.0524 
 184   0.0000       0.929693        25.2982 
 185   0.0000       0.933599        25.4045 
 186   0.0000       0.935190        25.4478 
 187   0.0000       0.940771        25.5997 
 188   0.0000       0.947262        25.7763 
 189   0.0000       0.954050        25.9610 
 190   0.0000       0.960268        26.1302 
 191   0.0000       0.967329        26.3224 
 192   0.0000       0.974868        26.5275 
 193   0.0000       0.978423        26.6242 
 194   0.0000       0.993575        27.0365 
 195   0.0000       0.999863        27.2076 
 196   0.0000       1.005389        27.3580 
 197   0.0000       1.008529        27.4435 
 198   0.0000       1.014642        27.6098 
 199   0.0000       1.029159        28.0048 
 200   0.0000       1.034632        28.1538 
 201   0.0000       1.055610        28.7246 
 202   0.0000       1.059764        28.8377 
 203   0.0000       1.066245        29.0140 
 204   0.0000       1.077009        29.3069 
 205   0.0000       1.086435        29.5634 
 206   0.0000       1.094858        29.7926 
 207   0.0000       1.102573        30.0025 
 208   0.0000       1.124890        30.6098 
 209   0.0000       1.135573        30.9005 
 210   0.0000       1.142246        31.0821 
 211   0.0000       1.165275        31.7087 
 212   0.0000       1.193742        32.4834 
 213   0.0000       1.202787        32.7295 
 214   0.0000       1.211858        32.9763 
 215   0.0000       1.231534        33.5117 
 216   0.0000       1.238098        33.6904 
 217   0.0000       1.276487        34.7350 
 218   0.0000       1.295903        35.2633 
 219   0.0000       1.304514        35.4976 
 220   0.0000       1.309447        35.6319 
 221   0.0000       1.322033        35.9744 
 222   0.0000       1.335294        36.3352 
 223   0.0000       1.351429        36.7742 
 224   0.0000       1.366484        37.1839 
 225   0.0000       1.398116        38.0447 
 226   0.0000       1.409098        38.3435 
 227   0.0000       1.419688        38.6317 
 228   0.0000       1.435285        39.0561 
 229   0.0000       1.444504        39.3070 
 230   0.0000       1.452105        39.5138 
 231   0.0000       1.469492        39.9869 
 232   0.0000       1.478075        40.2205 
 233   0.0000       1.485229        40.4151 
 234   0.0000       1.489561        40.5330 
 235   0.0000       1.491997        40.5993 
 236   0.0000       1.510099        41.0919 
 237   0.0000       1.516650        41.2702 
 238   0.0000       1.520729        41.3811 
 239   0.0000       1.528043        41.5802 
 240   0.0000       1.531168        41.6652 
 241   0.0000       1.545708        42.0609 
 242   0.0000       1.555360        42.3235 
 243   0.0000       1.571465        42.7617 
 244   0.0000       1.575252        42.8648 
 245   0.0000       1.579725        42.9865 
 246   0.0000       1.606732        43.7214 
 247   0.0000       1.628611        44.3168 
 248   0.0000       1.648508        44.8582 
 249   0.0000       1.658026        45.1172 
 250   0.0000       1.671341        45.4795 
 251   0.0000       1.703253        46.3479 
 252   0.0000       1.732834        47.1528 
 253   0.0000       1.744591        47.4727 
 254   0.0000       1.756037        47.7842 
 255   0.0000       1.772254        48.2255 
 256   0.0000       1.781153        48.4676 
 257   0.0000       1.795570        48.8600 
 258   0.0000       1.810297        49.2607 
 259   0.0000       1.818373        49.4804 
 260   0.0000       1.831262        49.8312 
 261   0.0000       1.842239        50.1299 
 262   0.0000       1.867171        50.8083 
 263   0.0000       1.892861        51.5074 
 264   0.0000       1.916663        52.1551 
 265   0.0000       1.918230        52.1977 
 266   0.0000       1.935396        52.6648 
 267   0.0000       1.945265        52.9334 
 268   0.0000       1.948935        53.0332 
 269   0.0000       1.951066        53.0912 
 270   0.0000       1.964180        53.4481 
 271   0.0000       1.974792        53.7368 
 272   0.0000       1.986365        54.0517 
 273   0.0000       1.993661        54.2503 
 274   0.0000       1.997233        54.3475 
 275   0.0000       2.003665        54.5225 
 276   0.0000       2.009029        54.6685 
 277   0.0000       2.014074        54.8057 
 278   0.0000       2.018542        54.9273 
 279   0.0000       2.022971        55.0478 
 280   0.0000       2.026075        55.1323 
 281   0.0000       2.034629        55.3651 
 282   0.0000       2.035538        55.3898 
 283   0.0000       2.048312        55.7374 
 284   0.0000       2.052676        55.8561 
 285   0.0000       2.053904        55.8896 
 286   0.0000       2.058745        56.0213 
 287   0.0000       2.067281        56.2536 
 288   0.0000       2.077065        56.5198 
 289   0.0000       2.080489        56.6130 
 290   0.0000       2.088669        56.8356 
 291   0.0000       2.098129        57.0930 
 292   0.0000       2.112841        57.4933 
 293   0.0000       2.114097        57.5275 
 294   0.0000       2.130096        57.9628 
 295   0.0000       2.147832        58.4455 
 296   0.0000       2.153738        58.6062 
 297   0.0000       2.171624        59.0929 
 298   0.0000       2.176891        59.2362 
 299   0.0000       2.179230        59.2999 
 300   0.0000       2.185332        59.4659 
 301   0.0000       2.190874        59.6167 
 302   0.0000       2.209490        60.1233 
 303   0.0000       2.224111        60.5211 
 304   0.0000       2.226674        60.5909 
 305   0.0000       2.238713        60.9185 
 306   0.0000       2.246974        61.1433 
 307   0.0000       2.259957        61.4966 
 308   0.0000       2.268355        61.7251 
 309   0.0000       2.272686        61.8429 
 310   0.0000       2.282986        62.1232 
 311   0.0000       2.287299        62.2406 
 312   0.0000       2.295686        62.4688 
 313   0.0000       2.324642        63.2567 
 314   0.0000       2.336171        63.5705 
 315   0.0000       2.347588        63.8811 
 316   0.0000       2.373853        64.5958 
 317   0.0000       2.382489        64.8308 
 318   0.0000       2.392335        65.0987 
 319   0.0000       2.404797        65.4378 
 320   0.0000       2.419027        65.8251 
 321   0.0000       2.424079        65.9625 
 322   0.0000       2.432131        66.1816 
 323   0.0000       2.437758        66.3348 
 324   0.0000       2.445225        66.5380 
 325   0.0000       2.454399        66.7876 
 326   0.0000       2.469968        67.2113 
 327   0.0000       2.477851        67.4257 
 328   0.0000       2.491454        67.7959 
 329   0.0000       2.503785        68.1315 
 330   0.0000       2.514999        68.4366 
 331   0.0000       2.539480        69.1028 
 332   0.0000       2.541032        69.1450 
 333   0.0000       2.561724        69.7081 
 334   0.0000       2.574753        70.0626 
 335   0.0000       2.580806        70.2273 
 336   0.0000       2.603895        70.8556 
 337   0.0000       2.610457        71.0342 
 338   0.0000       2.618652        71.2572 
 339   0.0000       2.623955        71.4015 
 340   0.0000       2.628788        71.5330 
 341   0.0000       2.633031        71.6484 
 342   0.0000       2.638524        71.7979 
 343   0.0000       2.647421        72.0400 
 344   0.0000       2.658043        72.3290 
 345   0.0000       2.665647        72.5360 
 346   0.0000       2.672996        72.7359 
 347   0.0000       2.697702        73.4082 
 348   0.0000       2.708908        73.7131 
 349   0.0000       2.719255        73.9947 
 350   0.0000       2.729765        74.2807 
 351   0.0000       2.776303        75.5470 
 352   0.0000       2.794976        76.0552 
 353   0.0000       2.811554        76.5063 
 354   0.0000       2.842410        77.3459 
 355   0.0000       2.855503        77.7022 
 356   0.0000       2.889368        78.6237 
 357   0.0000       2.900418        78.9244 
 358   0.0000       2.909657        79.1758 
 359   0.0000       2.920280        79.4648 
 360   0.0000       2.941797        80.0504 
 361   0.0000       2.952658        80.3459 
 362   0.0000       2.962192        80.6053 
 363   0.0000       2.973010        80.8997 
 364   0.0000       2.973939        80.9250 
 365   0.0000       2.983749        81.1919 
 366   0.0000       2.993416        81.4550 
 367   0.0000       3.002911        81.7134 
 368   0.0000       3.013157        81.9922 
 369   0.0000       3.033449        82.5443 
 370   0.0000       3.046550        82.9008 
 371   0.0000       3.067804        83.4792 
 372   0.0000       3.077613        83.7461 
 373   0.0000       3.081816        83.8605 
 374   0.0000       3.103602        84.4533 
 375   0.0000       3.114943        84.7619 
 376   0.0000       3.143835        85.5481 
 377   0.0000       3.167297        86.1865 
 378   0.0000       3.174234        86.3753 
 379   0.0000       3.179899        86.5294 
 380   0.0000       3.198719        87.0416 
 381   0.0000       3.218082        87.5685 
 382   0.0000       3.221059        87.6495 
 383   0.0000       3.222788        87.6965 
 384   0.0000       3.229165        87.8701 
 385   0.0000       3.244082        88.2760 
 386   0.0000       3.258029        88.6555 
 387   0.0000       3.265861        88.8686 
 388   0.0000       3.270835        89.0039 
 389   0.0000       3.297908        89.7406 
 390   0.0000       3.310640        90.0871 
 391   0.0000       3.323121        90.4267 
 392   0.0000       3.391814        92.2960 
 393   0.0000       3.417385        92.9918 
 394   0.0000       3.420100        93.0656 
 395   0.0000       3.436202        93.5038 
 396   0.0000       3.451525        93.9208 
 397   0.0000       3.463838        94.2558 
 398   0.0000       3.480369        94.7057 
 399   0.0000       3.495176        95.1086 
 400   0.0000       3.509794        95.5064 
 401   0.0000       3.551701        96.6467 
 402   0.0000       3.561766        96.9206 
 403   0.0000       3.575316        97.2893 
 404   0.0000       3.645760        99.2062 
 405   0.0000       3.724642       101.3527 
 406   0.0000       3.838188       104.4424 
 407   0.0000       3.892909       105.9314 
 408   0.0000       4.000211       108.8513 
 409   0.0000       4.017275       109.3156 
 410   0.0000       4.088914       111.2650 
 411   0.0000       4.138692       112.6195 

                    ********************************
                    * MULLIKEN POPULATION ANALYSIS *
                    ********************************

-----------------------
MULLIKEN ATOMIC CHARGES
-----------------------
   0 C :    0.222880
   1 O :   -0.549011
   2 C :    0.306664
   3 C :   -0.087305
   4 C :   -0.094326
   5 C :    0.339815
   6 C :   -0.176007
   7 C :   -0.005362
   8 C :    0.207598
   9 C :   -0.101715
  10 C :    0.028900
  11 C :   -0.038145
  12 C :   -0.031319
  13 C :   -0.037852
  14 C :   -0.001437
  15 N :   -0.343905
  16 C :    0.611126
  17 O :   -0.440418
  18 N :   -0.669353
  19 C :    0.298275
  20 C :   -0.239104
  21 C :   -0.062838
  22 C :   -0.058774
  23 H :    0.034258
  24 H :    0.033435
  25 H :    0.056241
  26 H :    0.044101
  27 H :    0.037252
  28 H :    0.075178
  29 H :    0.052463
  30 H :    0.047789
  31 H :    0.046919
  32 H :    0.046595
  33 H :    0.046957
  34 H :    0.080949
  35 H :    0.024794
  36 H :    0.075037
  37 H :    0.050355
  38 H :    0.063667
  39 H :    0.060807
  40 H :    0.044814
Sum of atomic charges:    0.0000000

--------------------------------
MULLIKEN REDUCED ORBITAL CHARGES
--------------------------------
  0 C s       :     3.021402  s :     3.021402
      pz      :     1.002615  p :     2.692414
      px      :     0.958006
      py      :     0.731793
      dz2     :     0.011669  d :     0.063304
      dxz     :     0.011833
      dyz     :     0.009198
      dx2y2   :     0.012417
      dxy     :     0.018187
  1 O s       :     3.794591  s :     3.794591
      pz      :     1.841858  p :     4.736060
      px      :     1.649341
      py      :     1.244861
      dz2     :     0.002566  d :     0.018360
      dxz     :     0.002096
      dyz     :     0.002598
      dx2y2   :     0.002210
      dxy     :     0.008889
  2 C s       :     2.932184  s :     2.932184
      pz      :     0.955984  p :     2.675035
      px      :     0.914650
      py      :     0.804401
      dz2     :     0.008447  d :     0.086118
      dxz     :     0.011112
      dyz     :     0.015593
      dx2y2   :     0.023366
      dxy     :     0.027599
  3 C s       :     3.174648  s :     3.174648
      pz      :     1.006312  p :     2.869404
      px      :     0.931131
      py      :     0.931961
      dz2     :     0.004708  d :     0.043252
      dxz     :     0.007233
      dyz     :     0.005045
      dx2y2   :     0.014015
      dxy     :     0.012252
  4 C s       :     3.178307  s :     3.178307
      pz      :     1.021256  p :     2.873923
      px      :     0.921019
      py      :     0.931648
      dz2     :     0.003879  d :     0.042095
      dxz     :     0.003847
      dyz     :     0.007753
      dx2y2   :     0.013376
      dxy     :     0.013241
  5 C s       :     2.941904  s :     2.941904
      pz      :     0.925145  p :     2.649423
      px      :     0.955497
      py      :     0.768780
      dz2     :     0.006501  d :     0.068858
      dxz     :     0.008764
      dyz     :     0.014135
      dx2y2   :     0.019389
      dxy     :     0.020068
  6 C s       :     3.027939  s :     3.027939
      pz      :     1.090669  p :     3.099138
      px      :     1.032799
      py      :     0.975669
      dz2     :     0.005247  d :     0.048931
      dxz     :     0.006910
      dyz     :     0.005971
      dx2y2   :     0.016326
      dxy     :     0.014476
  7 C s       :     3.238595  s :     3.238595
      pz      :     0.954401  p :     2.724846
      px      :     0.909437
      py      :     0.861008
      dz2     :     0.003986  d :     0.041920
      dxz     :     0.004095
      dyz     :     0.008494
      dx2y2   :     0.011935
      dxy     :     0.013410
  8 C s       :     3.040389  s :     3.040389
      pz      :     0.783577  p :     2.672265
      px      :     0.985008
      py      :     0.903680
      dz2     :     0.005998  d :     0.079749
      dxz     :     0.008195
      dyz     :     0.013996
      dx2y2   :     0.027824
      dxy     :     0.023736
  9 C s       :     3.008940  s :     3.008940
      pz      :     1.042336  p :     3.042531
      px      :     0.965694
      py      :     1.034501
      dz2     :     0.011454  d :     0.050244
      dxz     :     0.012011
      dyz     :     0.007609
      dx2y2   :     0.011494
      dxy     :     0.007677
 10 C s       :     3.156601  s :     3.156601
      pz      :     0.944071  p :     2.770845
      px      :     0.895542
      py      :     0.931232
      dz2     :     0.008588  d :     0.043653
      dxz     :     0.011869
      dyz     :     0.006018
      dx2y2   :     0.008686
      dxy     :     0.008493
 11 C s       :     3.129611  s :     3.129611
      pz      :     0.951826  p :     2.864833
      px      :     0.945479
      py      :     0.967528
      dz2     :     0.007725  d :     0.043701
      dxz     :     0.012393
      dyz     :     0.005362
      dx2y2   :     0.009083
      dxy     :     0.009137
 12 C s       :     3.130677  s :     3.130677
      pz      :     0.955870  p :     2.856810
      px      :     0.934762
      py      :     0.966177
      dz2     :     0.010328  d :     0.043833
      dxz     :     0.011197
      dyz     :     0.007378
      dx2y2   :     0.008391
      dxy     :     0.006539
 13 C s       :     3.128458  s :     3.128458
      pz      :     0.954777  p :     2.865654
      px      :     0.937319
      py      :     0.973558
      dz2     :     0.008604  d :     0.043740
      dxz     :     0.012497
      dyz     :     0.005954
      dx2y2   :     0.008380
      dxy     :     0.008306
 14 C s       :     3.155969  s :     3.155969
      pz      :     0.934277  p :     2.801808
      px      :     0.908807
      py      :     0.958724
      dz2     :     0.007954  d :     0.043660
      dxz     :     0.012821
      dyz     :     0.005124
      dx2y2   :     0.008505
      dxy     :     0.009256
 15 N s       :     3.564698  s :     3.564698
      pz      :     1.191288  p :     3.747145
      px      :     1.134399
      py      :     1.421458
      dz2     :     0.004065  d :     0.032062
      dxz     :     0.002325
      dyz     :     0.006841
      dx2y2   :     0.012813
      dxy     :     0.006019
 16 C s       :     2.942598  s :     2.942598
      pz      :     0.729568  p :     2.291020
      px      :     0.776918
      py      :     0.784534
      dz2     :     0.009679  d :     0.155256
      dxz     :     0.015978
      dyz     :     0.030649
      dx2y2   :     0.051687
      dxy     :     0.047264
 17 O s       :     3.789820  s :     3.789820
      pz      :     1.501167  p :     4.630900
      px      :     1.706364
      py      :     1.423369
      dz2     :     0.002340  d :     0.019698
      dxz     :     0.001215
      dyz     :     0.005112
      dx2y2   :     0.004857
      dxy     :     0.006173
 18 N s       :     3.528164  s :     3.528164
      pz      :     1.676323  p :     4.112367
      px      :     1.269804
      py      :     1.166240
      dz2     :     0.002632  d :     0.028821
      dxz     :     0.003380
      dyz     :     0.004018
      dx2y2   :     0.008160
      dxy     :     0.010631
 19 C s       :     2.939567  s :     2.939567
      pz      :     0.982018  p :     2.702433
      px      :     0.677374
      py      :     1.043042
      dz2     :     0.008824  d :     0.059725
      dxz     :     0.016047
      dyz     :     0.012123
      dx2y2   :     0.017945
      dxy     :     0.004787
 20 C s       :     3.258526  s :     3.258526
      pz      :     1.039192  p :     2.925424
      px      :     0.878107
      py      :     1.008125
      dz2     :     0.008306  d :     0.055154
      dxz     :     0.011893
      dyz     :     0.011110
      dx2y2   :     0.013355
      dxy     :     0.010490
 21 C s       :     3.120406  s :     3.120406
      pz      :     1.003215  p :     2.896892
      px      :     0.891814
      py      :     1.001864
      dz2     :     0.007429  d :     0.045540
      dxz     :     0.008645
      dyz     :     0.008123
      dx2y2   :     0.011065
      dxy     :     0.010279
 22 C s       :     3.116197  s :     3.116197
      pz      :     0.984867  p :     2.896481
      px      :     1.018130
      py      :     0.893484
      dz2     :     0.010044  d :     0.046096
      dxz     :     0.004690
      dyz     :     0.011051
      dx2y2   :     0.009177
      dxy     :     0.011134
 23 H s       :     0.940824  s :     0.940824
      pz      :     0.010795  p :     0.024918
      px      :     0.012081
      py      :     0.002041
 24 H s       :     0.941672  s :     0.941672
      pz      :     0.016605  p :     0.024893
      px      :     0.005196
      py      :     0.003092
 25 H s       :     0.919161  s :     0.919161
      pz      :     0.005485  p :     0.024598
      px      :     0.010001
      py      :     0.009113
 26 H s       :     0.929834  s :     0.929834
      pz      :     0.004105  p :     0.026065
      px      :     0.007401
      py      :     0.014559
 27 H s       :     0.936230  s :     0.936230
      pz      :     0.005470  p :     0.026518
      px      :     0.018397
      py      :     0.002651
 28 H s       :     0.897946  s :     0.897946
      pz      :     0.005235  p :     0.026876
      px      :     0.018961
      py      :     0.002680
 29 H s       :     0.921516  s :     0.921516
      pz      :     0.009180  p :     0.026021
      px      :     0.009805
      py      :     0.007036
 30 H s       :     0.926704  s :     0.926704
      pz      :     0.013390  p :     0.025507
      px      :     0.004210
      py      :     0.007907
 31 H s       :     0.927637  s :     0.927637
      pz      :     0.003312  p :     0.025444
      px      :     0.018530
      py      :     0.003602
 32 H s       :     0.927866  s :     0.927866
      pz      :     0.009566  p :     0.025539
      px      :     0.009658
      py      :     0.006315
 33 H s       :     0.927177  s :     0.927177
      pz      :     0.014259  p :     0.025866
      px      :     0.004112
      py      :     0.007495
 34 H s       :     0.893667  s :     0.893667
      pz      :     0.007832  p :     0.025384
      px      :     0.002322
      py      :     0.015230
 35 H s       :     0.950847  s :     0.950847
      pz      :     0.008901  p :     0.024358
      px      :     0.003315
      py      :     0.012142
 36 H s       :     0.900262  s :     0.900262
      pz      :     0.008796  p :     0.024701
      px      :     0.004779
      py      :     0.011125
 37 H s       :     0.924072  s :     0.924072
      pz      :     0.015285  p :     0.025573
      px      :     0.005936
      py      :     0.004352
 38 H s       :     0.910701  s :     0.910701
      pz      :     0.008384  p :     0.025632
      px      :     0.007118
      py      :     0.010129
 39 H s       :     0.913689  s :     0.913689
      pz      :     0.018431  p :     0.025504
      px      :     0.004383
      py      :     0.002689
 40 H s       :     0.929794  s :     0.929794
      pz      :     0.006152  p :     0.025391
      px      :     0.004526
      py      :     0.014714


                     *******************************
                     * LOEWDIN POPULATION ANALYSIS *
                     *******************************

----------------------
LOEWDIN ATOMIC CHARGES
----------------------
   0 C :    0.133221
   1 O :   -0.199227
   2 C :    0.068257
   3 C :   -0.034798
   4 C :   -0.041959
   5 C :    0.079937
   6 C :   -0.086230
   7 C :    0.002199
   8 C :    0.130006
   9 C :   -0.042525
  10 C :    0.007439
  11 C :   -0.020124
  12 C :   -0.016608
  13 C :   -0.022634
  14 C :   -0.009507
  15 N :   -0.155858
  16 C :    0.181714
  17 O :   -0.312814
  18 N :   -0.104164
  19 C :    0.090263
  20 C :   -0.039977
  21 C :   -0.030232
  22 C :   -0.032645
  23 H :    0.008311
  24 H :    0.007767
  25 H :    0.023745
  26 H :    0.033377
  27 H :    0.029190
  28 H :    0.044987
  29 H :    0.035699
  30 H :    0.030028
  31 H :    0.029010
  32 H :    0.029372
  33 H :    0.030545
  34 H :    0.037030
  35 H :    0.012933
  36 H :    0.029746
  37 H :    0.017275
  38 H :    0.023155
  39 H :    0.021922
  40 H :    0.012176

-------------------------------
LOEWDIN REDUCED ORBITAL CHARGES
-------------------------------
  0 C s       :     2.835108  s :     2.835108
      pz      :     1.060249  p :     2.896400
      px      :     1.016113
      py      :     0.820037
      dz2     :     0.024303  d :     0.135271
      dxz     :     0.027263
      dyz     :     0.019951
      dx2y2   :     0.024933
      dxy     :     0.038822
  1 O s       :     3.444093  s :     3.444093
      pz      :     1.815973  p :     4.724421
      px      :     1.650942
      py      :     1.257506
      dz2     :     0.003716  d :     0.030713
      dxz     :     0.002504
      dyz     :     0.004904
      dx2y2   :     0.005272
      dxy     :     0.014317
  2 C s       :     2.821860  s :     2.821860
      pz      :     0.962262  p :     2.926749
      px      :     1.035740
      py      :     0.928746
      dz2     :     0.016341  d :     0.183134
      dxz     :     0.022355
      dyz     :     0.030284
      dx2y2   :     0.052214
      dxy     :     0.061940
  3 C s       :     2.850054  s :     2.850054
      pz      :     0.993065  p :     3.087352
      px      :     1.043885
      py      :     1.050401
      dz2     :     0.009088  d :     0.097392
      dxz     :     0.014370
      dyz     :     0.009434
      dx2y2   :     0.033057
      dxy     :     0.031443
  4 C s       :     2.845048  s :     2.845048
      pz      :     1.020592  p :     3.101672
      px      :     1.039649
      py      :     1.041431
      dz2     :     0.007371  d :     0.095240
      dxz     :     0.006763
      dyz     :     0.015681
      dx2y2   :     0.033723
      dxy     :     0.031703
  5 C s       :     2.819361  s :     2.819361
      pz      :     0.939342  p :     2.949079
      px      :     1.041708
      py      :     0.968028
      dz2     :     0.012724  d :     0.151623
      dxz     :     0.017742
      dyz     :     0.028365
      dx2y2   :     0.045752
      dxy     :     0.047041
  6 C s       :     2.834238  s :     2.834238
      pz      :     1.047537  p :     3.138646
      px      :     1.051078
      py      :     1.040031
      dz2     :     0.010440  d :     0.113346
      dxz     :     0.014113
      dyz     :     0.012361
      dx2y2   :     0.040211
      dxy     :     0.036221
  7 C s       :     2.852365  s :     2.852365
      pz      :     0.966242  p :     3.050304
      px      :     1.044632
      py      :     1.039430
      dz2     :     0.007656  d :     0.095132
      dxz     :     0.007339
      dyz     :     0.017236
      dx2y2   :     0.030983
      dxy     :     0.031918
  8 C s       :     2.849046  s :     2.849046
      pz      :     0.770962  p :     2.851846
      px      :     1.035143
      py      :     1.045741
      dz2     :     0.011601  d :     0.169102
      dxz     :     0.016009
      dyz     :     0.025039
      dx2y2   :     0.065305
      dxy     :     0.051148
  9 C s       :     2.840857  s :     2.840857
      pz      :     1.061038  p :     3.088957
      px      :     1.021854
      py      :     1.006065
      dz2     :     0.025073  d :     0.112712
      dxz     :     0.027786
      dyz     :     0.016621
      dx2y2   :     0.025833
      dxy     :     0.017399
 10 C s       :     2.850330  s :     2.850330
      pz      :     1.018112  p :     3.043411
      px      :     1.054191
      py      :     0.971107
      dz2     :     0.018651  d :     0.098819
      dxz     :     0.028952
      dyz     :     0.012946
      dx2y2   :     0.019368
      dxy     :     0.018901
 11 C s       :     2.852870  s :     2.852870
      pz      :     1.020275  p :     3.069387
      px      :     1.062371
      py      :     0.986742
      dz2     :     0.016916  d :     0.097867
      dxz     :     0.028994
      dyz     :     0.011425
      dx2y2   :     0.020856
      dxy     :     0.019675
 12 C s       :     2.854306  s :     2.854306
      pz      :     1.033580  p :     3.064327
      px      :     1.043232
      py      :     0.987515
      dz2     :     0.023167  d :     0.097975
      dxz     :     0.025832
      dyz     :     0.016199
      dx2y2   :     0.019241
      dxy     :     0.013535
 13 C s       :     2.852563  s :     2.852563
      pz      :     1.028274  p :     3.071950
      px      :     1.052898
      py      :     0.990778
      dz2     :     0.018619  d :     0.098121
      dxz     :     0.030092
      dyz     :     0.012611
      dx2y2   :     0.018728
      dxy     :     0.018071
 14 C s       :     2.850288  s :     2.850288
      pz      :     1.020628  p :     3.060344
      px      :     1.056601
      py      :     0.983115
      dz2     :     0.017990  d :     0.098874
      dxz     :     0.030100
      dyz     :     0.011033
      dx2y2   :     0.019856
      dxy     :     0.019896
 15 N s       :     3.213294  s :     3.213294
      pz      :     1.182139  p :     3.881639
      px      :     1.222393
      py      :     1.477107
      dz2     :     0.007283  d :     0.060925
      dxz     :     0.005271
      dyz     :     0.008283
      dx2y2   :     0.026155
      dxy     :     0.013932
 16 C s       :     2.806773  s :     2.806773
      pz      :     0.763081  p :     2.692599
      px      :     0.959418
      py      :     0.970101
      dz2     :     0.019113  d :     0.318914
      dxz     :     0.029350
      dyz     :     0.056504
      dx2y2   :     0.111660
      dxy     :     0.102286
 17 O s       :     3.556841  s :     3.556841
      pz      :     1.491167  p :     4.725792
      px      :     1.719875
      py      :     1.514749
      dz2     :     0.004322  d :     0.030182
      dxz     :     0.001442
      dyz     :     0.005745
      dx2y2   :     0.007935
      dxy     :     0.010737
 18 N s       :     3.075713  s :     3.075713
      pz      :     1.586751  p :     3.967533
      px      :     1.212253
      py      :     1.168529
      dz2     :     0.004804  d :     0.060918
      dxz     :     0.006096
      dyz     :     0.007542
      dx2y2   :     0.019106
      dxy     :     0.023369
 19 C s       :     2.815462  s :     2.815462
      pz      :     1.039914  p :     2.961768
      px      :     0.845286
      py      :     1.076568
      dz2     :     0.018241  d :     0.132507
      dxz     :     0.036907
      dyz     :     0.027147
      dx2y2   :     0.039284
      dxy     :     0.010928
 20 C s       :     2.825015  s :     2.825015
      pz      :     1.053825  p :     3.096632
      px      :     0.989676
      py      :     1.053131
      dz2     :     0.017676  d :     0.118331
      dxz     :     0.026839
      dyz     :     0.023593
      dx2y2   :     0.027360
      dxy     :     0.022862
 21 C s       :     2.818780  s :     2.818780
      pz      :     1.054630  p :     3.110457
      px      :     0.990643
      py      :     1.065184
      dz2     :     0.016582  d :     0.100995
      dxz     :     0.021609
      dyz     :     0.017306
      dx2y2   :     0.022528
      dxy     :     0.022969
 22 C s       :     2.820402  s :     2.820402
      pz      :     1.036437  p :     3.110098
      px      :     1.094103
      py      :     0.979559
      dz2     :     0.024146  d :     0.102145
      dxz     :     0.009423
      dyz     :     0.025280
      dx2y2   :     0.021542
      dxy     :     0.021753
 23 H s       :     0.926842  s :     0.926842
      pz      :     0.026605  p :     0.064848
      px      :     0.030176
      py      :     0.008066
 24 H s       :     0.927430  s :     0.927430
      pz      :     0.039667  p :     0.064803
      px      :     0.014448
      py      :     0.010688
 25 H s       :     0.912898  s :     0.912898
      pz      :     0.014342  p :     0.063356
      px      :     0.025152
      py      :     0.023862
 26 H s       :     0.895991  s :     0.895991
      pz      :     0.014603  p :     0.070632
      px      :     0.020704
      py      :     0.035325
 27 H s       :     0.898769  s :     0.898769
      pz      :     0.017795  p :     0.072041
      px      :     0.043739
      py      :     0.010508
 28 H s       :     0.882317  s :     0.882317
      pz      :     0.016547  p :     0.072696
      px      :     0.046182
      py      :     0.009966
 29 H s       :     0.895197  s :     0.895197
      pz      :     0.024377  p :     0.069104
      px      :     0.025452
      py      :     0.019274
 30 H s       :     0.901620  s :     0.901620
      pz      :     0.032764  p :     0.068352
      px      :     0.013920
      py      :     0.021668
 31 H s       :     0.902795  s :     0.902795
      pz      :     0.012231  p :     0.068195
      px      :     0.043098
      py      :     0.012867
 32 H s       :     0.902302  s :     0.902302
      pz      :     0.024918  p :     0.068326
      px      :     0.024919
      py      :     0.018489
 33 H s       :     0.900291  s :     0.900291
      pz      :     0.034714  p :     0.069164
      px      :     0.013598
      py      :     0.020853
 34 H s       :     0.893898  s :     0.893898
      pz      :     0.022728  p :     0.069072
      px      :     0.008981
      py      :     0.037362
 35 H s       :     0.921550  s :     0.921550
      pz      :     0.024029  p :     0.065516
      px      :     0.010901
      py      :     0.030586
 36 H s       :     0.898579  s :     0.898579
      pz      :     0.025058  p :     0.071675
      px      :     0.016855
      py      :     0.029762
 37 H s       :     0.912416  s :     0.912416
      pz      :     0.036740  p :     0.070309
      px      :     0.018315
      py      :     0.015254
 38 H s       :     0.906583  s :     0.906583
      pz      :     0.022365  p :     0.070263
      px      :     0.020654
      py      :     0.027244
 39 H s       :     0.908046  s :     0.908046
      pz      :     0.043159  p :     0.070032
      px      :     0.016317
      py      :     0.010555
 40 H s       :     0.917734  s :     0.917734
      pz      :     0.017672  p :     0.070090
      px      :     0.016409
      py      :     0.036009


                      *****************************
                      * MAYER POPULATION ANALYSIS *
                      *****************************

  NA   - Mulliken gross atomic population
  ZA   - Total nuclear charge
  QA   - Mulliken gross atomic charge
  VA   - Mayer's total valence
  BVA  - Mayer's bonded valence
  FA   - Mayer's free valence

  ATOM       NA         ZA         QA         VA         BVA        FA
  0 C      5.7771     6.0000     0.2229     3.8366     3.8366    -0.0000
  1 O      8.5490     8.0000    -0.5490     1.9012     1.9012    -0.0000
  2 C      5.6933     6.0000     0.3067     3.7805     3.7805     0.0000
  3 C      6.0873     6.0000    -0.0873     3.8659     3.8659    -0.0000
  4 C      6.0943     6.0000    -0.0943     3.9555     3.9555    -0.0000
  5 C      5.6602     6.0000     0.3398     3.7674     3.7674     0.0000
  6 C      6.1760     6.0000    -0.1760     3.8358     3.8358     0.0000
  7 C      6.0054     6.0000    -0.0054     3.9057     3.9057     0.0000
  8 C      5.7924     6.0000     0.2076     3.9179     3.9179     0.0000
  9 C      6.1017     6.0000    -0.1017     3.8155     3.8155     0.0000
 10 C      5.9711     6.0000     0.0289     3.9376     3.9376    -0.0000
 11 C      6.0381     6.0000    -0.0381     3.8749     3.8749    -0.0000
 12 C      6.0313     6.0000    -0.0313     3.8673     3.8673     0.0000
 13 C      6.0379     6.0000    -0.0379     3.8912     3.8912    -0.0000
 14 C      6.0014     6.0000    -0.0014     3.9107     3.9107    -0.0000
 15 N      7.3439     7.0000    -0.3439     2.9498     2.9498     0.0000
 16 C      5.3889     6.0000     0.6111     4.0947     4.0947    -0.0000
 17 O      8.4404     8.0000    -0.4404     2.0349     2.0349     0.0000
 18 N      7.6694     7.0000    -0.6694     2.8815     2.8815     0.0000
 19 C      5.7017     6.0000     0.2983     3.7962     3.7962     0.0000
 20 C      6.2391     6.0000    -0.2391     3.8523     3.8523     0.0000
 21 C      6.0628     6.0000    -0.0628     3.8635     3.8635     0.0000
 22 C      6.0588     6.0000    -0.0588     3.8479     3.8479     0.0000
 23 H      0.9657     1.0000     0.0343     0.9795     0.9795     0.0000
 24 H      0.9666     1.0000     0.0334     0.9787     0.9787     0.0000
 25 H      0.9438     1.0000     0.0562     0.9874     0.9874    -0.0000
 26 H      0.9559     1.0000     0.0441     0.9976     0.9976     0.0000
 27 H      0.9627     1.0000     0.0373     0.9974     0.9974    -0.0000
 28 H      0.9248     1.0000     0.0752     1.0090     1.0090     0.0000
 29 H      0.9475     1.0000     0.0525     0.9964     0.9964    -0.0000
 30 H      0.9522     1.0000     0.0478     0.9858     0.9858    -0.0000
 31 H      0.9531     1.0000     0.0469     0.9855     0.9855    -0.0000
 32 H      0.9534     1.0000     0.0466     0.9858     0.9858    -0.0000
 33 H      0.9530     1.0000     0.0470     0.9936     0.9936    -0.0000
 34 H      0.9191     1.0000     0.0809     1.0010     1.0010    -0.0000
 35 H      0.9752     1.0000     0.0248     0.9881     0.9881     0.0000
 36 H      0.9250     1.0000     0.0750     0.9898     0.9898     0.0000
 37 H      0.9496     1.0000     0.0504     0.9819     0.9819     0.0000
 38 H      0.9363     1.0000     0.0637     0.9768     0.9768     0.0000
 39 H      0.9392     1.0000     0.0608     0.9767     0.9767    -0.0000
 40 H      0.9552     1.0000     0.0448     0.9830     0.9830    -0.0000

  Mayer bond orders larger than 0.100000
B(  0-C ,  1-O ) :   0.8683 B(  0-C , 23-H ) :   0.9842 B(  0-C , 24-H ) :   0.9843 
B(  0-C , 25-H ) :   0.9929 B(  1-O ,  2-C ) :   1.0014 B(  2-C ,  3-C ) :   1.3345 
B(  2-C ,  7-C ) :   1.4298 B(  3-C ,  4-C ) :   1.4189 B(  3-C , 26-H ) :   1.0040 
B(  4-C ,  5-C ) :   1.3916 B(  4-C , 27-H ) :   1.0038 B(  5-C ,  6-C ) :   1.3545 
B(  5-C , 18-N ) :   0.9742 B(  6-C ,  7-C ) :   1.3800 B(  6-C ,  8-C ) :   1.0210 
B(  7-C , 28-H ) :   1.0003 B(  8-C ,  9-C ) :   0.9909 B(  8-C , 15-N ) :   1.8639 
B(  9-C , 10-C ) :   1.4276 B(  9-C , 14-C ) :   1.4096 B( 10-C , 11-C ) :   1.4164 
B( 10-C , 29-H ) :   1.0007 B( 11-C , 12-C ) :   1.4125 B( 11-C , 30-H ) :   0.9986 
B( 12-C , 13-C ) :   1.4149 B( 12-C , 31-H ) :   0.9995 B( 13-C , 14-C ) :   1.4254 
B( 13-C , 32-H ) :   0.9990 B( 14-C , 33-H ) :   1.0015 B( 15-N , 16-C ) :   1.1237 
B( 16-C , 17-O ) :   1.9368 B( 16-C , 18-N ) :   1.0146 B( 18-N , 19-C ) :   0.8674 
B( 19-C , 20-C ) :   1.0058 B( 19-C , 34-H ) :   0.9612 B( 19-C , 35-H ) :   0.9781 
B( 20-C , 21-C ) :   0.9521 B( 20-C , 22-C ) :   0.9461 B( 20-C , 36-H ) :   0.9623 
B( 21-C , 22-C ) :   0.9699 B( 21-C , 37-H ) :   0.9785 B( 21-C , 38-H ) :   0.9759 
B( 22-C , 39-H ) :   0.9753 B( 22-C , 40-H ) :   0.9759 

-------
TIMINGS
-------

Total SCF time: 0 days 0 hours 0 min 25 sec 

Total time                  ....      25.769 sec
Sum of individual times     ....      25.428 sec  ( 98.7%)

Fock matrix formation       ....      24.426 sec  ( 94.8%)
Diagonalization             ....       0.274 sec  (  1.1%)
Density matrix formation    ....       0.020 sec  (  0.1%)
Population analysis         ....       0.035 sec  (  0.1%)
Initial guess               ....       0.147 sec  (  0.6%)
Orbital Transformation      ....       0.000 sec  (  0.0%)
Orbital Orthonormalization  ....       0.000 sec  (  0.0%)
DIIS solution               ....       0.133 sec  (  0.5%)
SOSCF solution              ....       0.217 sec  (  0.8%)

Maximum memory used throughout the entire SCF-calculation: 241.2 MB

-------------------------   --------------------
FINAL SINGLE POINT ENERGY      -987.835632632863
-------------------------   --------------------


                            ***************************************
                            *     ORCA property calculations      *
                            ***************************************

                                    ---------------------
                                    Active property flags
                                    ---------------------
   (+) Dipole Moment


------------------------------------------------------------------------------
                       ORCA ELECTRIC PROPERTIES CALCULATION
------------------------------------------------------------------------------

Dipole Moment Calculation                       ... on
Quadrupole Moment Calculation                   ... off
Polarizability Calculation                      ... off
GBWName                                         ... ./ZINC000000000154/ZINC000000000154.gbw
Electron density                                ... ./ZINC000000000154/ZINC000000000154.scfp
The origin for moment calculation is the CENTER OF MASS  = ( 0.494582, -0.516375  0.136235)

-------------
DIPOLE MOMENT
-------------
                                X             Y             Z
Electronic contribution:     11.45955      -8.28968       2.50192
Nuclear contribution   :    -11.43110      11.20607      -2.76717
                        -----------------------------------------
Total Dipole Moment    :      0.02845       2.91639      -0.26524
                        -----------------------------------------
Magnitude (a.u.)       :      2.92857
Magnitude (Debye)      :      7.44382



--------------------
Rotational spectrum 
--------------------
 
Rotational constants in cm-1:     0.011035     0.006368     0.004311 
Rotational constants in MHz :   330.820947   190.910924   129.250305 

 Dipole components along the rotational axes: 
x,y,z [a.u.] :    -0.002522    -2.926430    -0.111795 
x,y,z [Debye]:    -0.006410    -7.438393    -0.284160 

 

Timings for individual modules:

Sum of individual times         ...       26.426 sec (=   0.440 min)
GTO integral calculation        ...        0.430 sec (=   0.007 min)   1.6 %
SCF iterations                  ...       25.996 sec (=   0.433 min)  98.4 %
                             ****ORCA TERMINATED NORMALLY****
TOTAL RUN TIME: 0 days 0 hours 0 minutes 26 seconds 807 msec
