
                                 *****************
                                 * O   R   C   A *
                                 *****************

                                            #,                                       
                                            ###                                      
                                            ####                                     
                                            #####                                    
                                            ######                                   
                                           ########,                                 
                                     ,,################,,,,,                         
                               ,,#################################,,                 
                          ,,##########################################,,             
                       ,#########################################, ''#####,          
                    ,#############################################,,   '####,        
                  ,##################################################,,,,####,       
                ,###########''''           ''''###############################       
              ,#####''   ,,,,##########,,,,          '''####'''          '####       
            ,##' ,,,,###########################,,,                        '##       
           ' ,,###''''                  '''############,,,                           
         ,,##''                                '''############,,,,        ,,,,,,###''
      ,#''                                            '''#######################'''  
     '                                                          ''''####''''         
             ,#######,   #######,   ,#######,      ##                                
            ,#'     '#,  ##    ##  ,#'     '#,    #''#        ######   ,####,        
            ##       ##  ##   ,#'  ##            #'  '#       #        #'  '#        
            ##       ##  #######   ##           ,######,      #####,   #    #        
            '#,     ,#'  ##    ##  '#,     ,#' ,#      #,         ##   #,  ,#        
             '#######'   ##     ##  '#######'  #'      '#     #####' # '####'        



                  #######################################################
                  #                        -***-                        #
                  #          Department of theory and spectroscopy      #
                  #    Directorship and core code : Frank Neese         #
                  #        Max Planck Institute fuer Kohlenforschung    #
                  #                Kaiser Wilhelm Platz 1               #
                  #                 D-45470 Muelheim/Ruhr               #
                  #                      Germany                        #
                  #                                                     #
                  #                  All rights reserved                #
                  #                        -***-                        #
                  #######################################################


                         Program Version 5.0.3 -  RELEASE  -


 With contributions from (in alphabetic order):
   Daniel Aravena         : Magnetic Suceptibility
   Michael Atanasov       : Ab Initio Ligand Field Theory (pilot matlab implementation)
   Alexander A. Auer      : GIAO ZORA, VPT2 properties, NMR spectrum
   Ute Becker             : Parallelization
   Giovanni Bistoni       : ED, misc. LED, open-shell LED, HFLD
   Martin Brehm           : Molecular dynamics
   Dmytro Bykov           : SCF Hessian
   Vijay G. Chilkuri      : MRCI spin determinant printing, contributions to CSF-ICE
   Dipayan Datta          : RHF DLPNO-CCSD density
   Achintya Kumar Dutta   : EOM-CC, STEOM-CC
   Dmitry Ganyushin       : Spin-Orbit,Spin-Spin,Magnetic field MRCI
   Miquel Garcia          : C-PCM and meta-GGA Hessian, CC/C-PCM, Gaussian charge scheme
   Yang Guo               : DLPNO-NEVPT2, F12-NEVPT2, CIM, IAO-localization
   Andreas Hansen         : Spin unrestricted coupled pair/coupled cluster methods
   Benjamin Helmich-Paris : MC-RPA, TRAH-SCF, COSX integrals
   Lee Huntington         : MR-EOM, pCC
   Robert Izsak           : Overlap fitted RIJCOSX, COSX-SCS-MP3, EOM
   Marcus Kettner         : VPT2
   Christian Kollmar      : KDIIS, OOCD, Brueckner-CCSD(T), CCSD density, CASPT2, CASPT2-K
   Simone Kossmann        : Meta GGA functionals, TD-DFT gradient, OOMP2, MP2 Hessian
   Martin Krupicka        : Initial AUTO-CI
   Lucas Lang             : DCDCAS
   Marvin Lechner         : AUTO-CI (C++ implementation), FIC-MRCC
   Dagmar Lenk            : GEPOL surface, SMD
   Dimitrios Liakos       : Extrapolation schemes; Compound Job, initial MDCI parallelization
   Dimitrios Manganas     : Further ROCIS development; embedding schemes
   Dimitrios Pantazis     : SARC Basis sets
   Anastasios Papadopoulos: AUTO-CI, single reference methods and gradients
   Taras Petrenko         : DFT Hessian,TD-DFT gradient, ASA, ECA, R-Raman, ABS, FL, XAS/XES, NRVS
   Peter Pinski           : DLPNO-MP2, DLPNO-MP2 Gradient
   Christoph Reimann      : Effective Core Potentials
   Marius Retegan         : Local ZFS, SOC
   Christoph Riplinger    : Optimizer, TS searches, QM/MM, DLPNO-CCSD(T), (RO)-DLPNO pert. Triples
   Tobias Risthaus        : Range-separated hybrids, TD-DFT gradient, RPA, STAB
   Michael Roemelt        : Original ROCIS implementation
   Masaaki Saitow         : Open-shell DLPNO-CCSD energy and density
   Barbara Sandhoefer     : DKH picture change effects
   Avijit Sen             : IP-ROCIS
   Kantharuban Sivalingam : CASSCF convergence, NEVPT2, FIC-MRCI
   Bernardo de Souza      : ESD, SOC TD-DFT
   Georgi Stoychev        : AutoAux, RI-MP2 NMR, DLPNO-MP2 response
   Willem Van den Heuvel  : Paramagnetic NMR
   Boris Wezisla          : Elementary symmetry handling
   Frank Wennmohs         : Technical directorship


 We gratefully acknowledge several colleagues who have allowed us to
 interface, adapt or use parts of their codes:
   Stefan Grimme, W. Hujo, H. Kruse, P. Pracht,  : VdW corrections, initial TS optimization,
                  C. Bannwarth, S. Ehlert          DFT functionals, gCP, sTDA/sTD-DF
   Ed Valeev, F. Pavosevic, A. Kumar             : LibInt (2-el integral package), F12 methods
   Garnet Chan, S. Sharma, J. Yang, R. Olivares  : DMRG
   Ulf Ekstrom                                   : XCFun DFT Library
   Mihaly Kallay                                 : mrcc  (arbitrary order and MRCC methods)
   Jiri Pittner, Ondrej Demel                    : Mk-CCSD
   Frank Weinhold                                : gennbo (NPA and NBO analysis)
   Christopher J. Cramer and Donald G. Truhlar   : smd solvation model
   Lars Goerigk                                  : TD-DFT with DH, B97 family of functionals
   V. Asgeirsson, H. Jonsson                     : NEB implementation
   FAccTs GmbH                                   : IRC, NEB, NEB-TS, DLPNO-Multilevel, CI-OPT
                                                   MM, QMMM, 2- and 3-layer-ONIOM, Crystal-QMMM,
                                                   LR-CPCM, SF, NACMEs, symmetry and pop. for TD-DFT,
                                                   nearIR, NL-DFT gradient (VV10), updates on ESD,
                                                   ML-optimized integration grids
   S Lehtola, MJT Oliveira, MAL Marques          : LibXC Library
   Liviu Ungur et al                             : ANISO software


 Your calculation uses the libint2 library for the computation of 2-el integrals
 For citations please refer to: http://libint.valeyev.net

 Your ORCA version has been built with support for libXC version: 5.1.0
 For citations please refer to: https://tddft.org/programs/libxc/

 This ORCA versions uses:
   CBLAS   interface :  Fast vector & matrix operations
   LAPACKE interface :  Fast linear algebra routines
   SCALAPACK package :  Parallel linear algebra routines
   Shared memory     :  Shared parallel matrices
   BLAS/LAPACK       :  OpenBLAS 0.3.15  USE64BITINT DYNAMIC_ARCH NO_AFFINITY Zen SINGLE_THREADED
        Core in use  :  Zen
   Copyright (c) 2011-2014, The OpenBLAS Project


================================================================================

----- Orbital basis set information -----
Your calculation utilizes the basis: def2-SVP
   F. Weigend and R. Ahlrichs, Phys. Chem. Chem. Phys. 7, 3297 (2005).

================================================================================
                                        WARNINGS
                       Please study these warnings very carefully!
================================================================================


INFO   : the flag for use of the SHARK integral package has been found!

================================================================================
                                       INPUT FILE
================================================================================
NAME = ./ZINC000000000050/ZINC000000000050.inp
|  1> !RHF def2-SVP TightSCF PAL16 
|  2> *xyz 0 1
|  3> C 4.054129893212983 -0.3928546682132665 1.2301912806274786
|  4> N 3.1703691227310147 -0.7046969991988037 0.11021817325082599
|  5> C 2.339543904135678 -1.8836792413977332 0.4175507468452174
|  6> C 1.0552531702209358 -1.9736818783118726 -0.43432430675154204
|  7> N 0.15849124193953812 -0.8146874208219029 -0.20763183720863734
|  8> C -1.2133924155699911 -0.9897570785210822 -0.37583993949285216
|  9> C -1.6893119898753166 -2.004635148678529 -1.2388537000273823
| 10> C -3.04936119527273 -2.2600940903184608 -1.4458368896364007
| 11> C -3.9996635885525653 -1.4955172355687334 -0.7946253171387632
| 12> C -3.581703577094034 -0.4735894167505082 0.048114702281933444
| 13> C -2.20710071853339 -0.2061790129315538 0.25905380864290045
| 14> C -1.8773582141701242 0.939232774178383 1.1817165736781567
| 15> N -1.1203108202198202 1.9481603163979258 0.4612670530996324
| 16> C -1.551364826365454 3.201004807697144 0.1217588666141935
| 17> C -0.5619855376882803 3.792712505522864 -0.6305102250248044
| 18> C 0.5015839704037778 2.8630828120781233 -0.7367260570309446
| 19> C 0.1429436104665588 1.7271774856459705 -0.031978036058924124
| 20> C 0.8392628971142894 0.4237759634121829 0.2678520542191512
| 21> C 2.3199923717059345 0.45420400586505033 -0.2589551852117804
| 22> H 3.498311343959393 -0.09572022410029973 2.1267848100589037
| 23> H 4.738500466932556 0.4201525553338989 0.9637165642739044
| 24> H 4.678136313290766 -1.2580879204505546 1.4804092564482674
| 25> H 2.041109780640882 -1.8812364968399404 1.4752081018152081
| 26> H 2.9396414237754884 -2.7866040089400985 0.2549757149757845
| 27> H 0.5593022323112602 -2.910797392983376 -0.15151554756381777
| 28> H 1.3167586089845087 -2.031820827871238 -1.4982417129966579
| 29> H -0.9914726839783428 -2.6146818733799586 -1.8069906594699994
| 30> H -3.3539951171269604 -3.050960553980812 -2.125583623947572
| 31> H -5.058065385868326 -1.681807759616328 -0.9513346863334994
| 32> H -4.340121552407077 0.13207887192748488 0.5406927112557518
| 33> H -1.2896243135488012 0.6015668920702802 2.042097961060638
| 34> H -2.7780121431629876 1.4224479681248408 1.5778789036519374
| 35> H -2.526700176097079 3.5632242836864143 0.41816437090635683
| 36> H -0.6048071860190128 4.782775925927203 -1.0652210507182478
| 37> H 1.4306019410782667 3.018594370847238 -1.269897234335594
| 38> H 0.9073698391877606 0.35204775115964587 1.3635001633828392
| 39> H 2.8124920946801257 1.3889341001599944 0.04036683888564962
| 40> H 2.2905572147533784 0.4799158588502338 -1.3574526470235166
| 41> *
| 42> 
| 43>                          ****END OF INPUT****
================================================================================

                       ****************************
                       * Single Point Calculation *
                       ****************************

---------------------------------
CARTESIAN COORDINATES (ANGSTROEM)
---------------------------------
  C      4.054130   -0.392855    1.230191
  N      3.170369   -0.704697    0.110218
  C      2.339544   -1.883679    0.417551
  C      1.055253   -1.973682   -0.434324
  N      0.158491   -0.814687   -0.207632
  C     -1.213392   -0.989757   -0.375840
  C     -1.689312   -2.004635   -1.238854
  C     -3.049361   -2.260094   -1.445837
  C     -3.999664   -1.495517   -0.794625
  C     -3.581704   -0.473589    0.048115
  C     -2.207101   -0.206179    0.259054
  C     -1.877358    0.939233    1.181717
  N     -1.120311    1.948160    0.461267
  C     -1.551365    3.201005    0.121759
  C     -0.561986    3.792713   -0.630510
  C      0.501584    2.863083   -0.736726
  C      0.142944    1.727177   -0.031978
  C      0.839263    0.423776    0.267852
  C      2.319992    0.454204   -0.258955
  H      3.498311   -0.095720    2.126785
  H      4.738500    0.420153    0.963717
  H      4.678136   -1.258088    1.480409
  H      2.041110   -1.881236    1.475208
  H      2.939641   -2.786604    0.254976
  H      0.559302   -2.910797   -0.151516
  H      1.316759   -2.031821   -1.498242
  H     -0.991473   -2.614682   -1.806991
  H     -3.353995   -3.050961   -2.125584
  H     -5.058065   -1.681808   -0.951335
  H     -4.340122    0.132079    0.540693
  H     -1.289624    0.601567    2.042098
  H     -2.778012    1.422448    1.577879
  H     -2.526700    3.563224    0.418164
  H     -0.604807    4.782776   -1.065221
  H      1.430602    3.018594   -1.269897
  H      0.907370    0.352048    1.363500
  H      2.812492    1.388934    0.040367
  H      2.290557    0.479916   -1.357453

----------------------------
CARTESIAN COORDINATES (A.U.)
----------------------------
  NO LB      ZA    FRAG     MASS         X           Y           Z
   0 C     6.0000    0    12.011    7.661195   -0.742388    2.324725
   1 N     7.0000    0    14.007    5.991129   -1.331684    0.208282
   2 C     6.0000    0    12.011    4.421097   -3.559638    0.789057
   3 C     6.0000    0    12.011    1.994139   -3.729718   -0.820754
   4 N     7.0000    0    14.007    0.299505   -1.539536   -0.392367
   5 C     6.0000    0    12.011   -2.292979   -1.870370   -0.710235
   6 C     6.0000    0    12.011   -3.192337   -3.788211   -2.341094
   7 C     6.0000    0    12.011   -5.762458   -4.270959   -2.732236
   8 C     6.0000    0    12.011   -7.558269   -2.826118   -1.501624
   9 C     6.0000    0    12.011   -6.768439   -0.894954    0.090924
  10 C     6.0000    0    12.011   -4.170816   -0.389622    0.489541
  11 C     6.0000    0    12.011   -3.547693    1.774893    2.233121
  12 N     7.0000    0    14.007   -2.117081    3.681489    0.871668
  13 C     6.0000    0    12.011   -2.931655    6.049022    0.230091
  14 C     6.0000    0    12.011   -1.061999    7.167188   -1.191492
  15 C     6.0000    0    12.011    0.947856    5.410442   -1.392210
  16 C     6.0000    0    12.011    0.270124    3.263892   -0.060430
  17 C     6.0000    0    12.011    1.585977    0.800821    0.506167
  18 C     6.0000    0    12.011    4.384150    0.858321   -0.489354
  19 H     1.0000    0     1.008    6.610850   -0.180885    4.019041
  20 H     1.0000    0     1.008    8.954468    0.793973    1.821160
  21 H     1.0000    0     1.008    8.840396   -2.377442    2.797568
  22 H     1.0000    0     1.008    3.857138   -3.555022    2.787739
  23 H     1.0000    0     1.008    5.555117   -5.265918    0.481834
  24 H     1.0000    0     1.008    1.056928   -5.500610   -0.286323
  25 H     1.0000    0     1.008    2.488313   -3.839585   -2.831267
  26 H     1.0000    0     1.008   -1.873612   -4.941033   -3.414717
  27 H     1.0000    0     1.008   -6.338132   -5.765480   -4.016771
  28 H     1.0000    0     1.008   -9.558358   -3.178156   -1.797762
  29 H     1.0000    0     1.008   -8.201641    0.249593    1.021761
  30 H     1.0000    0     1.008   -2.437037    1.136797    3.859006
  31 H     1.0000    0     1.008   -5.249682    2.688037    2.981759
  32 H     1.0000    0     1.008   -4.774771    6.733518    0.790216
  33 H     1.0000    0     1.008   -1.142920    9.038137   -2.012976
  34 H     1.0000    0     1.008    2.703446    5.704317   -2.399758
  35 H     1.0000    0     1.008    1.714680    0.665274    2.576642
  36 H     1.0000    0     1.008    5.314840    2.624705    0.076282
  37 H     1.0000    0     1.008    4.328526    0.906910   -2.565214

--------------------------------
INTERNAL COORDINATES (ANGSTROEM)
--------------------------------
 C      0   0   0     0.000000000000     0.00000000     0.00000000
 N      1   0   0     1.460348759743     0.00000000     0.00000000
 C      2   1   0     1.474694199509   110.59966541     0.00000000
 C      3   2   1     1.543759784037   113.59724395   158.52966990
 N      4   3   2     1.482848469755   111.91207009   298.19475332
 C      5   4   3     1.393200674872   118.60899118   208.69552241
 C      6   5   4     1.414662394130   119.67466169   334.34700621
 C      7   6   5     1.399226626657   123.24491863   178.92047980
 C      8   7   6     1.382652855075   119.83011069     0.35490917
 C      9   8   7     1.388970042293   119.06472527     0.61313193
 C      6   5   4     1.415818084244   124.57158913   154.76122222
 C     11   6   5     1.507317106390   122.78697439     1.21282446
 N     12  11   6     1.452619376794   109.76801726    60.71974238
 C     13  12  11     1.367732680126   126.51824730   111.23394256
 C     14  13  12     1.376553000347   107.63047477   184.12554555
 C     15  14  13     1.416570954258   107.36866987   359.61585378
 C     13  12  11     1.374021792445   123.05766755   294.35921756
 C      5   4   3     1.491082335616   114.94971538    25.11798021
 C      2   1   3     1.484075849416   111.76429087   123.81365494
 H      1   2   3     1.095948490848   112.23431580   295.46921406
 H      1   2   3     1.095606043324   110.48414190   174.43774150
 H      1   2   3     1.095728811568   110.55775078    56.66855808
 H      3   2   1     1.098957675977   110.59680090    37.19306982
 H      3   2   1     1.096275882206   108.61267796   279.99407799
 H      4   3   2     1.097330221458   106.47334403   177.01700214
 H      4   3   2     1.097126008839   109.87150288    60.06323777
 H      7   6   5     1.087159743487   120.35923270   357.00471775
 H      8   7   6     1.086428650440   119.86809729   179.69127416
 H      9   8   7     1.086036993064   120.46420810   179.71045387
 H     10   9   8     1.088423169596   118.31530818   178.92504251
 H     12  11   6     1.095310694567   111.34304774   300.04669646
 H     12  11   6     1.096183841863   112.11447104   180.16531938
 H     14  13  12     1.081821711835   121.52196046     2.70011412
 H     15  14  13     1.082142676343   125.75790957   178.98681624
 H     16  15  14     1.082372273784   125.94977571   179.65693924
 H     18   5   4     1.100103754700   106.96000906   273.91363113
 H     19   2   1     1.098121122837   109.87131515    25.51139535
 H     19   2   1     1.099192522471   106.39213053   139.05744027

---------------------------
INTERNAL COORDINATES (A.U.)
---------------------------
 C      0   0   0     0.000000000000     0.00000000     0.00000000
 N      1   0   0     2.759659215927     0.00000000     0.00000000
 C      2   1   0     2.786768168355   110.59966541     0.00000000
 C      3   2   1     2.917283208392   113.59724395   158.52966990
 N      4   3   2     2.802177505941   111.91207009   298.19475332
 C      5   4   3     2.632767725102   118.60899118   208.69552241
 C      6   5   4     2.673324496863   119.67466169   334.34700621
 C      7   6   5     2.644155123673   123.24491863   178.92047980
 C      8   7   6     2.612835234376   119.83011069     0.35490917
 C      9   8   7     2.624772988154   119.06472527     0.61313193
 C      6   5   4     2.675508434675   124.57158913   154.76122222
 C     11   6   5     2.848416528052   122.78697439     1.21282446
 N     12  11   6     2.745052798968   109.76801726    60.71974238
 C     13  12  11     2.584640189852   126.51824730   111.23394256
 C     14  13  12     2.601308179484   107.63047477   184.12554555
 C     15  14  13     2.676931152814   107.36866987   359.61585378
 C     13  12  11     2.596524889761   123.05766755   294.35921756
 C      5   4   3     2.817737257441   114.94971538    25.11798021
 C      2   1   3     2.804496917363   111.76429087   123.81365494
 H      1   2   3     2.071042504586   112.23431580   295.46921406
 H      1   2   3     2.070395372552   110.48414190   174.43774150
 H      1   2   3     2.070627370910   110.55775078    56.66855808
 H      3   2   1     2.076729040367   110.59680090    37.19306982
 H      3   2   1     2.071661184592   108.61267796   279.99407799
 H      4   3   2     2.073653597031   106.47334403   177.01700214
 H      4   3   2     2.073267691107   109.87150288    60.06323777
 H      7   6   5     2.054434179014   120.35923270   357.00471775
 H      8   7   6     2.053052613377   119.86809729   179.69127416
 H      9   8   7     2.052312488199   120.46420810   179.71045387
 H     10   9   8     2.056821708350   118.31530818   178.92504251
 H     12  11   6     2.069837244287   111.34304774   300.04669646
 H     12  11   6     2.071487253550   112.11447104   180.16531938
 H     14  13  12     2.044346761097   121.52196046     2.70011412
 H     15  14  13     2.044953296118   125.75790957   178.98681624
 H     16  15  14     2.045387172401   125.94977571   179.65693924
 H     18   5   4     2.078894815282   106.96000906   273.91363113
 H     19   2   1     2.075148184035   109.87131515    25.51139535
 H     19   2   1     2.077172835924   106.39213053   139.05744027

---------------------
BASIS SET INFORMATION
---------------------
There are 3 groups of distinct atoms

 Group   1 Type C   : 7s4p1d contracted to 3s2p1d pattern {511/31/1}
 Group   2 Type N   : 7s4p1d contracted to 3s2p1d pattern {511/31/1}
 Group   3 Type H   : 4s1p contracted to 2s1p pattern {31/1}

Atom   0C    basis set group =>   1
Atom   1N    basis set group =>   2
Atom   2C    basis set group =>   1
Atom   3C    basis set group =>   1
Atom   4N    basis set group =>   2
Atom   5C    basis set group =>   1
Atom   6C    basis set group =>   1
Atom   7C    basis set group =>   1
Atom   8C    basis set group =>   1
Atom   9C    basis set group =>   1
Atom  10C    basis set group =>   1
Atom  11C    basis set group =>   1
Atom  12N    basis set group =>   2
Atom  13C    basis set group =>   1
Atom  14C    basis set group =>   1
Atom  15C    basis set group =>   1
Atom  16C    basis set group =>   1
Atom  17C    basis set group =>   1
Atom  18C    basis set group =>   1
Atom  19H    basis set group =>   3
Atom  20H    basis set group =>   3
Atom  21H    basis set group =>   3
Atom  22H    basis set group =>   3
Atom  23H    basis set group =>   3
Atom  24H    basis set group =>   3
Atom  25H    basis set group =>   3
Atom  26H    basis set group =>   3
Atom  27H    basis set group =>   3
Atom  28H    basis set group =>   3
Atom  29H    basis set group =>   3
Atom  30H    basis set group =>   3
Atom  31H    basis set group =>   3
Atom  32H    basis set group =>   3
Atom  33H    basis set group =>   3
Atom  34H    basis set group =>   3
Atom  35H    basis set group =>   3
Atom  36H    basis set group =>   3
Atom  37H    basis set group =>   3


           ************************************************************
           *        Program running with 16 parallel MPI-processes    *
           *              working on a common directory               *
           ************************************************************
------------------------------------------------------------------------------
                           ORCA GTO INTEGRAL CALCULATION
------------------------------------------------------------------------------
------------------------------------------------------------------------------
                   ___                                                        
                  /   \      - P O W E R E D   B Y -                         
                 /     \                                                     
                 |  |  |   _    _      __       _____    __    __             
                 |  |  |  | |  | |    /  \     |  _  \  |  |  /  |          
                  \  \/   | |  | |   /    \    | | | |  |  | /  /          
                 / \  \   | |__| |  /  /\  \   | |_| |  |  |/  /          
                |  |  |   |  __  | /  /__\  \  |    /   |      \           
                |  |  |   | |  | | |   __   |  |    \   |  |\   \          
                \     /   | |  | | |  |  |  |  | |\  \  |  | \   \       
                 \___/    |_|  |_| |__|  |__|  |_| \__\ |__|  \__/        
                                                                              
                      - O R C A' S   B I G   F R I E N D -                    
                                      &                                       
                       - I N T E G R A L  F E E D E R -                       
                                                                              
 v1 FN, 2020, v2 2021                                                         
------------------------------------------------------------------------------


Reading SHARK input file ./ZINC000000000050/ZINC000000000050.SHARKINP.tmp ... ok
----------------------
SHARK INTEGRAL PACKAGE
----------------------

Number of atoms                             ...     38
Number of basis functions                   ...    361
Number of shells                            ...    171
Maximum angular momentum                    ...      2
Integral batch strategy                     ... SHARK/LIBINT Hybrid
RI-J (if used) integral strategy            ... SPLIT-RIJ (Revised 2003 algorithm where possible)
Printlevel                                  ...      1
Contraction scheme used                     ... SEGMENTED contraction
Coulomb Range Separation                    ... NOT USED
Exchange Range Separation                   ... NOT USED
Finite Nucleus Model                        ... NOT USED
Auxiliary Coulomb fitting basis             ... NOT available
Auxiliary J/K fitting basis                 ... NOT available
Auxiliary Correlation fitting basis         ... NOT available
Auxiliary 'external' fitting basis          ... NOT available
Integral threshold                          ...     2.500000e-11
Primitive cut-off                           ...     2.500000e-12
Primitive pair pre-selection threshold      ...     2.500000e-12

Calculating pre-screening integrals         ... done (  0.0 sec) Dimension = 171
Organizing shell pair data                  ... done (  0.1 sec)
Shell pair information
Total number of shell pairs                 ...     14706
Shell pairs after pre-screening             ...     12011
Total number of primitive shell pairs       ...     52630
Primitive shell pairs kept                  ...     28449
          la=0 lb=0:   3826 shell pairs
          la=1 lb=0:   4484 shell pairs
          la=1 lb=1:   1351 shell pairs
          la=2 lb=0:   1401 shell pairs
          la=2 lb=1:    814 shell pairs
          la=2 lb=2:    135 shell pairs

Calculating one electron integrals          ... done (  0.0 sec)
Calculating Nuclear repulsion               ... done (  0.0 sec) ENN=   1450.766253121730 Eh

SHARK setup successfully completed in   0.2 seconds

Maximum memory used throughout the entire GTOINT-calculation: 18.1 MB


           ************************************************************
           *        Program running with 16 parallel MPI-processes    *
           *              working on a common directory               *
           ************************************************************
-------------------------------------------------------------------------------
                                 ORCA SCF
-------------------------------------------------------------------------------

------------
SCF SETTINGS
------------
Hamiltonian:
 Ab initio Hamiltonian  Method          .... Hartree-Fock(GTOs)


General Settings:
 Integral files         IntName         .... ./ZINC000000000050/ZINC000000000050
 Hartree-Fock type      HFTyp           .... RHF
 Total Charge           Charge          ....    0
 Multiplicity           Mult            ....    1
 Number of Electrons    NEL             ....  136
 Basis Dimension        Dim             ....  361
 Nuclear Repulsion      ENuc            ....   1450.7662531217 Eh

Convergence Acceleration:
 DIIS                   CNVDIIS         .... on
   Start iteration      DIISMaxIt       ....    12
   Startup error        DIISStart       ....  0.200000
   # of expansion vecs  DIISMaxEq       ....     5
   Bias factor          DIISBfac        ....   1.050
   Max. coefficient     DIISMaxC        ....  10.000
 Trust-Rad. Augm. Hess. CNVTRAH         .... auto
   Auto Start mean grad. ratio tolernc. ....  1.125000
   Auto Start start iteration           ....    20
   Auto Start num. interpolation iter.  ....    10
   Max. Number of Micro iterations      ....    16
   Max. Number of Macro iterations      .... Maxiter - #DIIS iter
   Number of Davidson start vectors     ....     2
   Converg. threshold I  (grad. norm)   ....   1.000e-05
   Converg. threshold II (energy diff.) ....   1.000e-08
   Grad. Scal. Fac. for Micro threshold ....   0.100
   Minimum threshold for Micro iter.    ....   0.010
   NR start threshold (gradient norm)   ....   0.001
   Initial trust radius                 ....   0.400
   Minimum AH scaling param. (alpha)    ....   1.000
   Maximum AH scaling param. (alpha)    .... 1000.000
   Orbital update algorithm             .... Taylor
   White noise on init. David. guess    .... on
   Maximum white noise                  ....   0.010
   Quad. conv. algorithm                .... NR
 SOSCF                  CNVSOSCF        .... on
   Start iteration      SOSCFMaxIt      ....   150
   Startup grad/error   SOSCFStart      ....  0.003300
 Level Shifting         CNVShift        .... on
   Level shift para.    LevelShift      ....    0.2500
   Turn off err/grad.   ShiftErr        ....    0.0010
 Zerner damping         CNVZerner       .... off
 Static damping         CNVDamp         .... on
   Fraction old density DampFac         ....    0.7000
   Max. Damping (<1)    DampMax         ....    0.9800
   Min. Damping (>=0)   DampMin         ....    0.0000
   Turn off err/grad.   DampErr         ....    0.1000
 Fernandez-Rico         CNVRico         .... off

SCF Procedure:
 Maximum # iterations   MaxIter         ....   125
 SCF integral mode      SCFMode         .... Direct
   Integral package                     .... SHARK and LIBINT hybrid scheme
 Reset frequency        DirectResetFreq ....    20
 Integral Threshold     Thresh          ....  2.500e-11 Eh
 Primitive CutOff       TCut            ....  2.500e-12 Eh

Convergence Tolerance:
 Convergence Check Mode ConvCheckMode   .... Total+1el-Energy
 Convergence forced     ConvForced      .... 0
 Energy Change          TolE            ....  1.000e-08 Eh
 1-El. energy change                    ....  1.000e-05 Eh
 Orbital Gradient       TolG            ....  1.000e-05
 Orbital Rotation angle TolX            ....  1.000e-05
 DIIS Error             TolErr          ....  5.000e-07


Diagonalization of the overlap matrix:
Smallest eigenvalue                        ... 2.309e-04
Time for diagonalization                   ...    0.015 sec
Threshold for overlap eigenvalues          ... 1.000e-08
Number of eigenvalues below threshold      ... 0
Time for construction of square roots      ...    0.013 sec
Total time needed                          ...    0.029 sec

Time for model grid setup =    0.152 sec

------------------------------
INITIAL GUESS: MODEL POTENTIAL
------------------------------
Loading Hartree-Fock densities                     ... done
Calculating cut-offs                               ... done
Initializing the effective Hamiltonian             ... done
Setting up the integral package (SHARK)            ... done
Starting the Coulomb interaction                   ... done (   0.1 sec)
Reading the grid                                   ... done
Mapping shells                                     ... done
Starting the XC term evaluation                    ... done (   0.0 sec)
Transforming the Hamiltonian                       ... done (   0.0 sec)
Diagonalizing the Hamiltonian                      ... done (   0.0 sec)
Back transforming the eigenvectors                 ... done (   0.0 sec)
Now organizing SCF variables                       ... done
                      ------------------
                      INITIAL GUESS DONE (   0.3 sec)
                      ------------------
--------------
SCF ITERATIONS
--------------
ITER       Energy         Delta-E        Max-DP      RMS-DP      [F,P]     Damp
               ***  Starting incremental Fock matrix formation  ***
  0   -779.0562197814   0.000000000000 0.06377356  0.00197572  0.1671881 0.7000
  1   -779.2622497475  -0.206029966052 0.04784826  0.00155044  0.1099128 0.7000
                               ***Turning on DIIS***
  2   -779.3928083925  -0.130558645086 0.12008048  0.00363532  0.0657159 0.0000
  3   -778.5942855772   0.798522815367 0.02791715  0.00066799  0.0250397 0.0000
  4   -779.6848868156  -1.090601238441 0.00952973  0.00026372  0.0048389 0.0000
                      *** Initiating the SOSCF procedure ***
                           *** Shutting down DIIS ***
                      *** Re-Reading the Fockian *** 
                      *** Removing any level shift *** 
ITER      Energy       Delta-E        Grad      Rot      Max-DP    RMS-DP
  5   -779.66074718   0.0241396314  0.002609  0.002609  0.003183  0.000110
               *** Restarting incremental Fock matrix formation ***
  6   -779.67165177  -0.0109045858  0.001160  0.002730  0.002143  0.000052
  7   -779.67170624  -0.0000544706  0.000605  0.002425  0.002061  0.000054
  8   -779.67172449  -0.0000182487  0.000252  0.000445  0.000450  0.000013
  9   -779.67172699  -0.0000024968  0.000052  0.000120  0.000154  0.000005
 10   -779.67172726  -0.0000002748  0.000027  0.000088  0.000082  0.000002
 11   -779.67172732  -0.0000000571  0.000012  0.000030  0.000020  0.000001
 12   -779.67172732   0.0000000011  0.000004  0.000017  0.000012  0.000000
                  ***Gradient check signals convergence***
              ***Rediagonalizing the Fockian in SOSCF/NRSCF***

               *****************************************************
               *                     SUCCESS                       *
               *           SCF CONVERGED AFTER  13 CYCLES          *
               *****************************************************


----------------
TOTAL SCF ENERGY
----------------

Total Energy       :         -779.67172731 Eh          -21215.94630 eV

Components:
Nuclear Repulsion  :         1450.76625312 Eh           39477.35674 eV
Electronic Energy  :        -2230.43798044 Eh          -60693.30304 eV
One Electron Energy:        -3939.76806481 Eh         -107206.53932 eV
Two Electron Energy:         1709.33008438 Eh           46513.23628 eV

Virial components:
Potential Energy   :        -1555.00491467 Eh          -42313.83492 eV
Kinetic Energy     :          775.33318735 Eh           21097.88862 eV
Virial Ratio       :            2.00559571


---------------
SCF CONVERGENCE
---------------

  Last Energy change         ...    2.8836e-09  Tolerance :   1.0000e-08
  Last MAX-Density change    ...    3.9225e-06  Tolerance :   1.0000e-07
  Last RMS-Density change    ...    1.0517e-07  Tolerance :   5.0000e-09
  Last Orbital Gradient      ...    1.6991e-06  Tolerance :   1.0000e-05
  Last Orbital Rotation      ...    7.6864e-06  Tolerance :   1.0000e-05

             **** THE GBW FILE WAS UPDATED (./ZINC000000000050/ZINC000000000050.gbw) ****
             **** DENSITY ./ZINC000000000050/ZINC000000000050.scfp WAS UPDATED ****
             **** ENERGY FILE WAS UPDATED (./ZINC000000000050/ZINC000000000050.en.tmp) ****
             **** THE GBW FILE WAS UPDATED (./ZINC000000000050/ZINC000000000050.gbw) ****
             **** DENSITY ./ZINC000000000050/ZINC000000000050.scfp WAS UPDATED ****
----------------
ORBITAL ENERGIES
----------------

  NO   OCC          E(Eh)            E(eV) 
   0   2.0000     -15.600669      -424.5158 
   1   2.0000     -15.568349      -423.6363 
   2   2.0000     -15.548944      -423.1083 
   3   2.0000     -11.287027      -307.1356 
   4   2.0000     -11.286495      -307.1212 
   5   2.0000     -11.282738      -307.0189 
   6   2.0000     -11.270958      -306.6984 
   7   2.0000     -11.261057      -306.4289 
   8   2.0000     -11.261026      -306.4281 
   9   2.0000     -11.254102      -306.2397 
  10   2.0000     -11.253544      -306.2245 
  11   2.0000     -11.250310      -306.1365 
  12   2.0000     -11.240161      -305.8603 
  13   2.0000     -11.237653      -305.7921 
  14   2.0000     -11.235777      -305.7410 
  15   2.0000     -11.227497      -305.5157 
  16   2.0000     -11.221708      -305.3582 
  17   2.0000     -11.209790      -305.0339 
  18   2.0000     -11.205612      -304.9202 
  19   2.0000      -1.297834       -35.3159 
  20   2.0000      -1.247394       -33.9433 
  21   2.0000      -1.203575       -32.7510 
  22   2.0000      -1.131440       -30.7880 
  23   2.0000      -1.076334       -29.2885 
  24   2.0000      -1.044019       -28.4092 
  25   2.0000      -1.013715       -27.5846 
  26   2.0000      -1.001494       -27.2520 
  27   2.0000      -0.963457       -26.2170 
  28   2.0000      -0.948125       -25.7998 
  29   2.0000      -0.912404       -24.8278 
  30   2.0000      -0.880746       -23.9663 
  31   2.0000      -0.872010       -23.7286 
  32   2.0000      -0.810815       -22.0634 
  33   2.0000      -0.797367       -21.6974 
  34   2.0000      -0.778109       -21.1734 
  35   2.0000      -0.747165       -20.3314 
  36   2.0000      -0.737785       -20.0762 
  37   2.0000      -0.706268       -19.2185 
  38   2.0000      -0.689927       -18.7739 
  39   2.0000      -0.672987       -18.3129 
  40   2.0000      -0.660155       -17.9637 
  41   2.0000      -0.655250       -17.8303 
  42   2.0000      -0.633974       -17.2513 
  43   2.0000      -0.620350       -16.8806 
  44   2.0000      -0.614176       -16.7126 
  45   2.0000      -0.601942       -16.3797 
  46   2.0000      -0.594198       -16.1690 
  47   2.0000      -0.586024       -15.9465 
  48   2.0000      -0.576608       -15.6903 
  49   2.0000      -0.569671       -15.5015 
  50   2.0000      -0.557324       -15.1656 
  51   2.0000      -0.543657       -14.7936 
  52   2.0000      -0.539629       -14.6841 
  53   2.0000      -0.538245       -14.6464 
  54   2.0000      -0.527075       -14.3425 
  55   2.0000      -0.518633       -14.1127 
  56   2.0000      -0.517680       -14.0868 
  57   2.0000      -0.503680       -13.7058 
  58   2.0000      -0.498881       -13.5752 
  59   2.0000      -0.491646       -13.3784 
  60   2.0000      -0.487260       -13.2590 
  61   2.0000      -0.476582       -12.9685 
  62   2.0000      -0.407031       -11.0759 
  63   2.0000      -0.356263        -9.6944 
  64   2.0000      -0.338503        -9.2111 
  65   2.0000      -0.327905        -8.9228 
  66   2.0000      -0.292875        -7.9695 
  67   2.0000      -0.282323        -7.6824 
  68   0.0000       0.130558         3.5527 
  69   0.0000       0.143650         3.9089 
  70   0.0000       0.164536         4.4773 
  71   0.0000       0.177479         4.8294 
  72   0.0000       0.183935         5.0051 
  73   0.0000       0.192558         5.2398 
  74   0.0000       0.201049         5.4708 
  75   0.0000       0.207980         5.6594 
  76   0.0000       0.217736         5.9249 
  77   0.0000       0.230329         6.2676 
  78   0.0000       0.231696         6.3048 
  79   0.0000       0.236891         6.4461 
  80   0.0000       0.245911         6.6916 
  81   0.0000       0.251154         6.8342 
  82   0.0000       0.256175         6.9709 
  83   0.0000       0.263803         7.1784 
  84   0.0000       0.270503         7.3608 
  85   0.0000       0.278514         7.5787 
  86   0.0000       0.280230         7.6254 
  87   0.0000       0.288600         7.8532 
  88   0.0000       0.295818         8.0496 
  89   0.0000       0.311914         8.4876 
  90   0.0000       0.326481         8.8840 
  91   0.0000       0.333708         9.0806 
  92   0.0000       0.335246         9.1225 
  93   0.0000       0.344616         9.3775 
  94   0.0000       0.364269         9.9123 
  95   0.0000       0.371970        10.1218 
  96   0.0000       0.383405        10.4330 
  97   0.0000       0.402681        10.9575 
  98   0.0000       0.413167        11.2429 
  99   0.0000       0.416106        11.3228 
 100   0.0000       0.443879        12.0786 
 101   0.0000       0.445897        12.1335 
 102   0.0000       0.459038        12.4911 
 103   0.0000       0.465396        12.6641 
 104   0.0000       0.471292        12.8245 
 105   0.0000       0.485686        13.2162 
 106   0.0000       0.491963        13.3870 
 107   0.0000       0.494413        13.4537 
 108   0.0000       0.507782        13.8174 
 109   0.0000       0.533161        14.5080 
 110   0.0000       0.545297        14.8383 
 111   0.0000       0.561007        15.2658 
 112   0.0000       0.580175        15.7874 
 113   0.0000       0.595317        16.1994 
 114   0.0000       0.603747        16.4288 
 115   0.0000       0.612873        16.6771 
 116   0.0000       0.619528        16.8582 
 117   0.0000       0.631049        17.1717 
 118   0.0000       0.638720        17.3805 
 119   0.0000       0.646579        17.5943 
 120   0.0000       0.661719        18.0063 
 121   0.0000       0.665428        18.1072 
 122   0.0000       0.668930        18.2025 
 123   0.0000       0.672923        18.3112 
 124   0.0000       0.684012        18.6129 
 125   0.0000       0.694215        18.8906 
 126   0.0000       0.701593        19.0913 
 127   0.0000       0.704824        19.1792 
 128   0.0000       0.720540        19.6069 
 129   0.0000       0.732042        19.9199 
 130   0.0000       0.741335        20.1728 
 131   0.0000       0.753022        20.4908 
 132   0.0000       0.770150        20.9568 
 133   0.0000       0.779389        21.2083 
 134   0.0000       0.783354        21.3161 
 135   0.0000       0.790061        21.4987 
 136   0.0000       0.800609        21.7857 
 137   0.0000       0.816120        22.2078 
 138   0.0000       0.831713        22.6321 
 139   0.0000       0.836982        22.7754 
 140   0.0000       0.838041        22.8043 
 141   0.0000       0.850313        23.1382 
 142   0.0000       0.858699        23.3664 
 143   0.0000       0.862631        23.4734 
 144   0.0000       0.866105        23.5679 
 145   0.0000       0.869093        23.6492 
 146   0.0000       0.874430        23.7945 
 147   0.0000       0.880600        23.9623 
 148   0.0000       0.887408        24.1476 
 149   0.0000       0.888456        24.1761 
 150   0.0000       0.893778        24.3209 
 151   0.0000       0.896504        24.3951 
 152   0.0000       0.900724        24.5099 
 153   0.0000       0.904890        24.6233 
 154   0.0000       0.907979        24.7074 
 155   0.0000       0.912918        24.8418 
 156   0.0000       0.918718        24.9996 
 157   0.0000       0.920858        25.0578 
 158   0.0000       0.932152        25.3651 
 159   0.0000       0.936314        25.4784 
 160   0.0000       0.943526        25.6747 
 161   0.0000       0.947917        25.7941 
 162   0.0000       0.956700        26.0331 
 163   0.0000       0.960193        26.1282 
 164   0.0000       0.965762        26.2797 
 165   0.0000       0.973108        26.4796 
 166   0.0000       0.983294        26.7568 
 167   0.0000       0.987789        26.8791 
 168   0.0000       0.998557        27.1721 
 169   0.0000       1.008373        27.4392 
 170   0.0000       1.013040        27.5662 
 171   0.0000       1.019985        27.7552 
 172   0.0000       1.030031        28.0286 
 173   0.0000       1.045131        28.4394 
 174   0.0000       1.053846        28.6766 
 175   0.0000       1.060955        28.8700 
 176   0.0000       1.088273        29.6134 
 177   0.0000       1.107111        30.1260 
 178   0.0000       1.118593        30.4385 
 179   0.0000       1.129934        30.7471 
 180   0.0000       1.136490        30.9255 
 181   0.0000       1.155932        31.4545 
 182   0.0000       1.173484        31.9321 
 183   0.0000       1.190236        32.3880 
 184   0.0000       1.209645        32.9161 
 185   0.0000       1.223347        33.2890 
 186   0.0000       1.244367        33.8609 
 187   0.0000       1.251379        34.0517 
 188   0.0000       1.273594        34.6563 
 189   0.0000       1.286565        35.0092 
 190   0.0000       1.306974        35.5646 
 191   0.0000       1.327568        36.1249 
 192   0.0000       1.356005        36.8988 
 193   0.0000       1.382159        37.6104 
 194   0.0000       1.385012        37.6881 
 195   0.0000       1.407332        38.2954 
 196   0.0000       1.414638        38.4943 
 197   0.0000       1.428690        38.8766 
 198   0.0000       1.444395        39.3040 
 199   0.0000       1.447806        39.3968 
 200   0.0000       1.469312        39.9820 
 201   0.0000       1.488640        40.5080 
 202   0.0000       1.501707        40.8635 
 203   0.0000       1.515510        41.2391 
 204   0.0000       1.527681        41.5703 
 205   0.0000       1.537036        41.8249 
 206   0.0000       1.551988        42.2317 
 207   0.0000       1.561307        42.4853 
 208   0.0000       1.566464        42.6257 
 209   0.0000       1.576189        42.8903 
 210   0.0000       1.589384        43.2493 
 211   0.0000       1.594021        43.3755 
 212   0.0000       1.597258        43.4636 
 213   0.0000       1.630512        44.3685 
 214   0.0000       1.640972        44.6531 
 215   0.0000       1.649566        44.8870 
 216   0.0000       1.663059        45.2541 
 217   0.0000       1.700212        46.2651 
 218   0.0000       1.722990        46.8849 
 219   0.0000       1.758309        47.8460 
 220   0.0000       1.765840        48.0509 
 221   0.0000       1.803768        49.0830 
 222   0.0000       1.819035        49.4985 
 223   0.0000       1.826722        49.7076 
 224   0.0000       1.840803        50.0908 
 225   0.0000       1.864082        50.7242 
 226   0.0000       1.874836        51.0169 
 227   0.0000       1.891033        51.4576 
 228   0.0000       1.925481        52.3950 
 229   0.0000       1.932137        52.5761 
 230   0.0000       1.936108        52.6842 
 231   0.0000       1.944371        52.9090 
 232   0.0000       1.973514        53.7020 
 233   0.0000       1.976768        53.7906 
 234   0.0000       1.993891        54.2565 
 235   0.0000       2.002733        54.4971 
 236   0.0000       2.006626        54.6031 
 237   0.0000       2.015695        54.8498 
 238   0.0000       2.030530        55.2535 
 239   0.0000       2.031746        55.2866 
 240   0.0000       2.039140        55.4878 
 241   0.0000       2.045144        55.6512 
 242   0.0000       2.049136        55.7598 
 243   0.0000       2.061869        56.1063 
 244   0.0000       2.075829        56.4862 
 245   0.0000       2.081144        56.6308 
 246   0.0000       2.091633        56.9162 
 247   0.0000       2.101894        57.1954 
 248   0.0000       2.103531        57.2400 
 249   0.0000       2.107300        57.3426 
 250   0.0000       2.111475        57.4561 
 251   0.0000       2.122167        57.7471 
 252   0.0000       2.130349        57.9697 
 253   0.0000       2.140311        58.2408 
 254   0.0000       2.154610        58.6299 
 255   0.0000       2.162535        58.8456 
 256   0.0000       2.167900        58.9916 
 257   0.0000       2.180664        59.3389 
 258   0.0000       2.188048        59.5398 
 259   0.0000       2.194449        59.7140 
 260   0.0000       2.204717        59.9934 
 261   0.0000       2.216054        60.3019 
 262   0.0000       2.222985        60.4905 
 263   0.0000       2.226853        60.5958 
 264   0.0000       2.248308        61.1796 
 265   0.0000       2.250805        61.2475 
 266   0.0000       2.252171        61.2847 
 267   0.0000       2.262172        61.5568 
 268   0.0000       2.266202        61.6665 
 269   0.0000       2.271805        61.8190 
 270   0.0000       2.279488        62.0280 
 271   0.0000       2.303085        62.6701 
 272   0.0000       2.307275        62.7841 
 273   0.0000       2.318762        63.0967 
 274   0.0000       2.337121        63.5963 
 275   0.0000       2.341820        63.7242 
 276   0.0000       2.350786        63.9681 
 277   0.0000       2.365523        64.3692 
 278   0.0000       2.371853        64.5414 
 279   0.0000       2.376798        64.6760 
 280   0.0000       2.399630        65.2973 
 281   0.0000       2.419051        65.8257 
 282   0.0000       2.438445        66.3535 
 283   0.0000       2.450258        66.6749 
 284   0.0000       2.464002        67.0489 
 285   0.0000       2.470710        67.2314 
 286   0.0000       2.478102        67.4326 
 287   0.0000       2.494916        67.8901 
 288   0.0000       2.507843        68.2419 
 289   0.0000       2.517156        68.4953 
 290   0.0000       2.528845        68.8134 
 291   0.0000       2.539695        69.1086 
 292   0.0000       2.541325        69.1530 
 293   0.0000       2.559373        69.6441 
 294   0.0000       2.574204        70.0477 
 295   0.0000       2.601551        70.7918 
 296   0.0000       2.617188        71.2173 
 297   0.0000       2.634660        71.6927 
 298   0.0000       2.638253        71.7905 
 299   0.0000       2.653543        72.2066 
 300   0.0000       2.668833        72.6226 
 301   0.0000       2.677883        72.8689 
 302   0.0000       2.685165        73.0671 
 303   0.0000       2.694154        73.3116 
 304   0.0000       2.715825        73.9014 
 305   0.0000       2.719719        74.0073 
 306   0.0000       2.747553        74.7647 
 307   0.0000       2.754045        74.9414 
 308   0.0000       2.758021        75.0496 
 309   0.0000       2.763132        75.1887 
 310   0.0000       2.795807        76.0778 
 311   0.0000       2.818996        76.7088 
 312   0.0000       2.834537        77.1317 
 313   0.0000       2.840930        77.3056 
 314   0.0000       2.862573        77.8946 
 315   0.0000       2.927247        79.6544 
 316   0.0000       2.934123        79.8415 
 317   0.0000       2.942451        80.0682 
 318   0.0000       2.956207        80.4425 
 319   0.0000       2.965571        80.6973 
 320   0.0000       2.985533        81.2405 
 321   0.0000       3.001908        81.6861 
 322   0.0000       3.028487        82.4093 
 323   0.0000       3.040537        82.7372 
 324   0.0000       3.057758        83.2058 
 325   0.0000       3.064453        83.3880 
 326   0.0000       3.074863        83.6713 
 327   0.0000       3.086344        83.9837 
 328   0.0000       3.091816        84.1326 
 329   0.0000       3.098001        84.3009 
 330   0.0000       3.104506        84.4779 
 331   0.0000       3.126938        85.0883 
 332   0.0000       3.147739        85.6543 
 333   0.0000       3.155554        85.8670 
 334   0.0000       3.182767        86.6075 
 335   0.0000       3.187687        86.7414 
 336   0.0000       3.202724        87.1505 
 337   0.0000       3.224332        87.7385 
 338   0.0000       3.240271        88.1723 
 339   0.0000       3.266204        88.8779 
 340   0.0000       3.267126        88.9030 
 341   0.0000       3.284013        89.3626 
 342   0.0000       3.300584        89.8135 
 343   0.0000       3.322912        90.4210 
 344   0.0000       3.355575        91.3098 
 345   0.0000       3.378673        91.9384 
 346   0.0000       3.382027        92.0296 
 347   0.0000       3.389090        92.2218 
 348   0.0000       3.413826        92.8949 
 349   0.0000       3.434907        93.4686 
 350   0.0000       3.443008        93.6890 
 351   0.0000       3.476488        94.6000 
 352   0.0000       3.514146        95.6248 
 353   0.0000       3.546838        96.5144 
 354   0.0000       3.570277        97.1522 
 355   0.0000       3.607756        98.1720 
 356   0.0000       3.724079       101.3374 
 357   0.0000       3.768221       102.5385 
 358   0.0000       3.793306       103.2211 
 359   0.0000       3.899545       106.1120 
 360   0.0000       4.004425       108.9659 

                    ********************************
                    * MULLIKEN POPULATION ANALYSIS *
                    ********************************

-----------------------
MULLIKEN ATOMIC CHARGES
-----------------------
   0 C :    0.152223
   1 N :   -0.660148
   2 C :    0.202125
   3 C :    0.192958
   4 N :   -0.741992
   5 C :    0.344093
   6 C :   -0.139569
   7 C :    0.012910
   8 C :   -0.065790
   9 C :   -0.008896
  10 C :   -0.267112
  11 C :    0.375757
  12 N :   -0.521122
  13 C :    0.131785
  14 C :   -0.089885
  15 C :   -0.130780
  16 C :    0.102126
  17 C :    0.242054
  18 C :    0.234473
  19 H :    0.005063
  20 H :    0.036725
  21 H :    0.031254
  22 H :    0.009394
  23 H :    0.036416
  24 H :    0.047763
  25 H :    0.038883
  26 H :    0.032384
  27 H :    0.037101
  28 H :    0.030900
  29 H :    0.025670
  30 H :    0.050183
  31 H :    0.036378
  32 H :    0.042716
  33 H :    0.031871
  34 H :    0.024764
  35 H :    0.030657
  36 H :    0.043989
  37 H :    0.042678
Sum of atomic charges:   -0.0000000

--------------------------------
MULLIKEN REDUCED ORBITAL CHARGES
--------------------------------
  0 C s       :     3.002182  s :     3.002182
      pz      :     0.854272  p :     2.792797
      px      :     0.923660
      py      :     1.014864
      dz2     :     0.013423  d :     0.052799
      dxz     :     0.016127
      dyz     :     0.006258
      dx2y2   :     0.003809
      dxy     :     0.013182
  1 N s       :     3.626271  s :     3.626271
      pz      :     1.518599  p :     4.001381
      px      :     1.335951
      py      :     1.146831
      dz2     :     0.006944  d :     0.032496
      dxz     :     0.005860
      dyz     :     0.004533
      dx2y2   :     0.003767
      dxy     :     0.011392
  2 C s       :     2.969239  s :     2.969239
      pz      :     0.966977  p :     2.769097
      px      :     0.917900
      py      :     0.884220
      dz2     :     0.014880  d :     0.059539
      dxz     :     0.012048
      dyz     :     0.005051
      dx2y2   :     0.010775
      dxy     :     0.016785
  3 C s       :     2.994887  s :     2.994887
      pz      :     0.997798  p :     2.753505
      px      :     0.915613
      py      :     0.840094
      dz2     :     0.015018  d :     0.058650
      dxz     :     0.012148
      dyz     :     0.006765
      dx2y2   :     0.008745
      dxy     :     0.015974
  4 N s       :     3.545309  s :     3.545309
      pz      :     1.757889  p :     4.169581
      px      :     1.158748
      py      :     1.252945
      dz2     :     0.002676  d :     0.027101
      dxz     :     0.003674
      dyz     :     0.002836
      dx2y2   :     0.008865
      dxy     :     0.009051
  5 C s       :     2.954738  s :     2.954738
      pz      :     0.886450  p :     2.628186
      px      :     0.790771
      py      :     0.950965
      dz2     :     0.010025  d :     0.072983
      dxz     :     0.023169
      dyz     :     0.007229
      dx2y2   :     0.017641
      dxy     :     0.014919
  6 C s       :     3.185196  s :     3.185196
      pz      :     0.981483  p :     2.913445
      px      :     0.921861
      py      :     1.010101
      dz2     :     0.005524  d :     0.040928
      dxz     :     0.009391
      dyz     :     0.005946
      dx2y2   :     0.009539
      dxy     :     0.010528
  7 C s       :     3.114145  s :     3.114145
      pz      :     0.945214  p :     2.827217
      px      :     0.945983
      py      :     0.936020
      dz2     :     0.005450  d :     0.045728
      dxz     :     0.010935
      dyz     :     0.005782
      dx2y2   :     0.011240
      dxy     :     0.012320
  8 C s       :     3.126998  s :     3.126998
      pz      :     0.999599  p :     2.894958
      px      :     0.913265
      py      :     0.982094
      dz2     :     0.007181  d :     0.043833
      dxz     :     0.008092
      dyz     :     0.007259
      dx2y2   :     0.011213
      dxy     :     0.010088
  9 C s       :     3.158398  s :     3.158398
      pz      :     0.943889  p :     2.806003
      px      :     0.927509
      py      :     0.934605
      dz2     :     0.006408  d :     0.044495
      dxz     :     0.009549
      dyz     :     0.006230
      dx2y2   :     0.010626
      dxy     :     0.011682
 10 C s       :     3.030701  s :     3.030701
      pz      :     1.070202  p :     3.188143
      px      :     1.022449
      py      :     1.095492
      dz2     :     0.005819  d :     0.048267
      dxz     :     0.010808
      dyz     :     0.007703
      dx2y2   :     0.011931
      dxy     :     0.012005
 11 C s       :     2.908846  s :     2.908846
      pz      :     0.918301  p :     2.655344
      px      :     0.925357
      py      :     0.811686
      dz2     :     0.008683  d :     0.060054
      dxz     :     0.012125
      dyz     :     0.017284
      dx2y2   :     0.007434
      dxy     :     0.014527
 12 N s       :     3.490997  s :     3.490997
      pz      :     1.485737  p :     3.992789
      px      :     1.260607
      py      :     1.246444
      dz2     :     0.003676  d :     0.037337
      dxz     :     0.007069
      dyz     :     0.007179
      dx2y2   :     0.010992
      dxy     :     0.008421
 13 C s       :     3.071644  s :     3.071644
      pz      :     1.011051  p :     2.736024
      px      :     0.937502
      py      :     0.787471
      dz2     :     0.010130  d :     0.060547
      dxz     :     0.007788
      dyz     :     0.010750
      dx2y2   :     0.017866
      dxy     :     0.014013
 14 C s       :     3.138844  s :     3.138844
      pz      :     1.030837  p :     2.907208
      px      :     0.940224
      py      :     0.936147
      dz2     :     0.006661  d :     0.043833
      dxz     :     0.007999
      dyz     :     0.006304
      dx2y2   :     0.010064
      dxy     :     0.012804
 15 C s       :     3.199903  s :     3.199903
      pz      :     1.020253  p :     2.886841
      px      :     0.919410
      py      :     0.947178
      dz2     :     0.005877  d :     0.044035
      dxz     :     0.006325
      dyz     :     0.009093
      dx2y2   :     0.011461
      dxy     :     0.011280
 16 C s       :     3.009836  s :     3.009836
      pz      :     0.996767  p :     2.820224
      px      :     0.830203
      py      :     0.993255
      dz2     :     0.011767  d :     0.067814
      dxz     :     0.011991
      dyz     :     0.009651
      dx2y2   :     0.020370
      dxy     :     0.014035
 17 C s       :     2.941104  s :     2.941104
      pz      :     0.983043  p :     2.750360
      px      :     0.975046
      py      :     0.792271
      dz2     :     0.019577  d :     0.066483
      dxz     :     0.007880
      dyz     :     0.010182
      dx2y2   :     0.013394
      dxy     :     0.015449
 18 C s       :     2.983560  s :     2.983560
      pz      :     1.016078  p :     2.724773
      px      :     0.845700
      py      :     0.862995
      dz2     :     0.016241  d :     0.057194
      dxz     :     0.007520
      dyz     :     0.006985
      dx2y2   :     0.011831
      dxy     :     0.014617
 19 H s       :     0.970768  s :     0.970768
      pz      :     0.012674  p :     0.024169
      px      :     0.006554
      py      :     0.004941
 20 H s       :     0.938901  s :     0.938901
      pz      :     0.003674  p :     0.024375
      px      :     0.009120
      py      :     0.011580
 21 H s       :     0.944286  s :     0.944286
      pz      :     0.003781  p :     0.024459
      px      :     0.008241
      py      :     0.012438
 22 H s       :     0.967668  s :     0.967668
      pz      :     0.016599  p :     0.022938
      px      :     0.003906
      py      :     0.002433
 23 H s       :     0.940281  s :     0.940281
      pz      :     0.003936  p :     0.023304
      px      :     0.007305
      py      :     0.012062
 24 H s       :     0.928152  s :     0.928152
      pz      :     0.004631  p :     0.024085
      px      :     0.005750
      py      :     0.013704
 25 H s       :     0.938203  s :     0.938203
      pz      :     0.017118  p :     0.022914
      px      :     0.003286
      py      :     0.002510
 26 H s       :     0.941846  s :     0.941846
      pz      :     0.008309  p :     0.025770
      px      :     0.008906
      py      :     0.008554
 27 H s       :     0.937416  s :     0.937416
      pz      :     0.009809  p :     0.025483
      px      :     0.003832
      py      :     0.011842
 28 H s       :     0.943396  s :     0.943396
      pz      :     0.003984  p :     0.025704
      px      :     0.017979
      py      :     0.003741
 29 H s       :     0.948905  s :     0.948905
      pz      :     0.006726  p :     0.025425
      px      :     0.010629
      py      :     0.008070
 30 H s       :     0.925711  s :     0.925711
      pz      :     0.012521  p :     0.024106
      px      :     0.007403
      py      :     0.004182
 31 H s       :     0.939525  s :     0.939525
      pz      :     0.005409  p :     0.024097
      px      :     0.013409
      py      :     0.005279
 32 H s       :     0.930797  s :     0.930797
      pz      :     0.005476  p :     0.026487
      px      :     0.016468
      py      :     0.004543
 33 H s       :     0.941788  s :     0.941788
      pz      :     0.006840  p :     0.026341
      px      :     0.002922
      py      :     0.016580
 34 H s       :     0.949050  s :     0.949050
      pz      :     0.008304  p :     0.026185
      px      :     0.014624
      py      :     0.003257
 35 H s       :     0.947703  s :     0.947703
      pz      :     0.017371  p :     0.021640
      px      :     0.002106
      py      :     0.002163
 36 H s       :     0.931649  s :     0.931649
      pz      :     0.004773  p :     0.024362
      px      :     0.005714
      py      :     0.013876
 37 H s       :     0.934504  s :     0.934504
      pz      :     0.017849  p :     0.022817
      px      :     0.002423
      py      :     0.002546


                     *******************************
                     * LOEWDIN POPULATION ANALYSIS *
                     *******************************

----------------------
LOEWDIN ATOMIC CHARGES
----------------------
   0 C :    0.054981
   1 N :   -0.207049
   2 C :    0.060418
   3 C :    0.080332
   4 N :   -0.167410
   5 C :    0.076212
   6 C :   -0.070098
   7 C :   -0.006202
   8 C :   -0.065340
   9 C :   -0.008115
  10 C :   -0.085576
  11 C :    0.096157
  12 N :   -0.009737
  13 C :    0.005892
  14 C :   -0.093474
  15 C :   -0.088358
  16 C :   -0.014514
  17 C :    0.062277
  18 C :    0.072777
  19 H :   -0.008057
  20 H :    0.013273
  21 H :    0.013426
  22 H :   -0.003303
  23 H :    0.016225
  24 H :    0.021714
  25 H :    0.008477
  26 H :    0.023687
  27 H :    0.027388
  28 H :    0.022626
  29 H :    0.023798
  30 H :    0.021116
  31 H :    0.026709
  32 H :    0.017973
  33 H :    0.020833
  34 H :    0.018913
  35 H :    0.006000
  36 H :    0.021021
  37 H :    0.015009

-------------------------------
LOEWDIN REDUCED ORBITAL CHARGES
-------------------------------
  0 C s       :     2.830732  s :     2.830732
      pz      :     0.955988  p :     2.997508
      px      :     0.988087
      py      :     1.053433
      dz2     :     0.030972  d :     0.116779
      dxz     :     0.034840
      dyz     :     0.014025
      dx2y2   :     0.007533
      dxy     :     0.029408
  1 N s       :     3.155205  s :     3.155205
      pz      :     1.507292  p :     3.991953
      px      :     1.317685
      py      :     1.166976
      dz2     :     0.011088  d :     0.059891
      dxz     :     0.011051
      dyz     :     0.008311
      dx2y2   :     0.008235
      dxy     :     0.021206
  2 C s       :     2.834661  s :     2.834661
      pz      :     1.031760  p :     2.976822
      px      :     0.987570
      py      :     0.957493
      dz2     :     0.033191  d :     0.128099
      dxz     :     0.026324
      dyz     :     0.010328
      dx2y2   :     0.022820
      dxy     :     0.035435
  3 C s       :     2.830990  s :     2.830990
      pz      :     1.051043  p :     2.961904
      px      :     0.973495
      py      :     0.937367
      dz2     :     0.032652  d :     0.126774
      dxz     :     0.026131
      dyz     :     0.014437
      dx2y2   :     0.019265
      dxy     :     0.034290
  4 N s       :     3.073819  s :     3.073819
      pz      :     1.676838  p :     4.037483
      px      :     1.155191
      py      :     1.205454
      dz2     :     0.004444  d :     0.056108
      dxz     :     0.007359
      dyz     :     0.005204
      dx2y2   :     0.018921
      dxy     :     0.020179
  5 C s       :     2.823674  s :     2.823674
      pz      :     0.972882  p :     2.940237
      px      :     0.950424
      py      :     1.016931
      dz2     :     0.020408  d :     0.159877
      dxz     :     0.049467
      dyz     :     0.015645
      dx2y2   :     0.040233
      dxy     :     0.034123
  6 C s       :     2.850842  s :     2.850842
      pz      :     1.026842  p :     3.126568
      px      :     1.051556
      py      :     1.048170
      dz2     :     0.010992  d :     0.092688
      dxz     :     0.021603
      dyz     :     0.013158
      dx2y2   :     0.022055
      dxy     :     0.024880
  7 C s       :     2.850530  s :     2.850530
      pz      :     0.985893  p :     3.053646
      px      :     1.066160
      py      :     1.001594
      dz2     :     0.010847  d :     0.102026
      dxz     :     0.023845
      dyz     :     0.012747
      dx2y2   :     0.026683
      dxy     :     0.027904
  8 C s       :     2.845640  s :     2.845640
      pz      :     1.037310  p :     3.119685
      px      :     1.039140
      py      :     1.043236
      dz2     :     0.015189  d :     0.100015
      dxz     :     0.017814
      dyz     :     0.016690
      dx2y2   :     0.027163
      dxy     :     0.023158
  9 C s       :     2.853359  s :     2.853359
      pz      :     0.998415  p :     3.054502
      px      :     1.038777
      py      :     1.017310
      dz2     :     0.012579  d :     0.100254
      dxz     :     0.021946
      dyz     :     0.013417
      dx2y2   :     0.024289
      dxy     :     0.028023
 10 C s       :     2.849618  s :     2.849618
      pz      :     1.028335  p :     3.129560
      px      :     1.063048
      py      :     1.038178
      dz2     :     0.011894  d :     0.106398
      dxz     :     0.023149
      dyz     :     0.016224
      dx2y2   :     0.027963
      dxy     :     0.027168
 11 C s       :     2.814967  s :     2.814967
      pz      :     1.001031  p :     2.955358
      px      :     1.003963
      py      :     0.950364
      dz2     :     0.018357  d :     0.133518
      dxz     :     0.027277
      dyz     :     0.038787
      dx2y2   :     0.016933
      dxy     :     0.032165
 12 N s       :     3.052307  s :     3.052307
      pz      :     1.417977  p :     3.880904
      px      :     1.238909
      py      :     1.224017
      dz2     :     0.006716  d :     0.076527
      dxz     :     0.013712
      dyz     :     0.013769
      dx2y2   :     0.023895
      dxy     :     0.018435
 13 C s       :     2.843538  s :     2.843538
      pz      :     1.047366  p :     3.016850
      px      :     1.045972
      py      :     0.923511
      dz2     :     0.020034  d :     0.133721
      dxz     :     0.016230
      dyz     :     0.023795
      dx2y2   :     0.040601
      dxy     :     0.033061
 14 C s       :     2.850887  s :     2.850887
      pz      :     1.057133  p :     3.142784
      px      :     1.047263
      py      :     1.038389
      dz2     :     0.012539  d :     0.099802
      dxz     :     0.018084
      dyz     :     0.014057
      dx2y2   :     0.024737
      dxy     :     0.030386
 15 C s       :     2.849462  s :     2.849462
      pz      :     1.051615  p :     3.138690
      px      :     1.042295
      py      :     1.044780
      dz2     :     0.010602  d :     0.100206
      dxz     :     0.014016
      dyz     :     0.020767
      dx2y2   :     0.027615
      dxy     :     0.027207
 16 C s       :     2.832576  s :     2.832576
      pz      :     1.037487  p :     3.034106
      px      :     0.937617
      py      :     1.059003
      dz2     :     0.023209  d :     0.147833
      dxz     :     0.026085
      dyz     :     0.019989
      dx2y2   :     0.046354
      dxy     :     0.032196
 17 C s       :     2.829565  s :     2.829565
      pz      :     1.034925  p :     2.965346
      px      :     1.002679
      py      :     0.927741
      dz2     :     0.043185  d :     0.142812
      dxz     :     0.015958
      dyz     :     0.021443
      dx2y2   :     0.029348
      dxy     :     0.032878
 18 C s       :     2.837484  s :     2.837484
      pz      :     1.047410  p :     2.967523
      px      :     0.962195
      py      :     0.957918
      dz2     :     0.035509  d :     0.122216
      dxz     :     0.015336
      dyz     :     0.014534
      dx2y2   :     0.025818
      dxy     :     0.031020
 19 H s       :     0.943376  s :     0.943376
      pz      :     0.032915  p :     0.064680
      px      :     0.017459
      py      :     0.014306
 20 H s       :     0.923552  s :     0.923552
      pz      :     0.011234  p :     0.063175
      px      :     0.023599
      py      :     0.028342
 21 H s       :     0.923374  s :     0.923374
      pz      :     0.011292  p :     0.063200
      px      :     0.021641
      py      :     0.030266
 22 H s       :     0.937492  s :     0.937492
      pz      :     0.041185  p :     0.065811
      px      :     0.014147
      py      :     0.010479
 23 H s       :     0.919584  s :     0.919584
      pz      :     0.012507  p :     0.064191
      px      :     0.020450
      py      :     0.031233
 24 H s       :     0.912710  s :     0.912710
      pz      :     0.014372  p :     0.065576
      px      :     0.016994
      py      :     0.034210
 25 H s       :     0.925351  s :     0.925351
      pz      :     0.042478  p :     0.066172
      px      :     0.013584
      py      :     0.010110
 26 H s       :     0.905545  s :     0.905545
      pz      :     0.022965  p :     0.070767
      px      :     0.023938
      py      :     0.023864
 27 H s       :     0.905076  s :     0.905076
      pz      :     0.025211  p :     0.067536
      px      :     0.012960
      py      :     0.029366
 28 H s       :     0.908528  s :     0.908528
      pz      :     0.014044  p :     0.068846
      px      :     0.041372
      py      :     0.013430
 29 H s       :     0.908658  s :     0.908658
      pz      :     0.019159  p :     0.067544
      px      :     0.026622
      py      :     0.021762
 30 H s       :     0.913078  s :     0.913078
      pz      :     0.032075  p :     0.065806
      px      :     0.019929
      py      :     0.013802
 31 H s       :     0.909710  s :     0.909710
      pz      :     0.015519  p :     0.063581
      px      :     0.032711
      py      :     0.015351
 32 H s       :     0.910655  s :     0.910655
      pz      :     0.017461  p :     0.071371
      px      :     0.039960
      py      :     0.013950
 33 H s       :     0.908933  s :     0.908933
      pz      :     0.019885  p :     0.070234
      px      :     0.011484
      py      :     0.038865
 34 H s       :     0.910455  s :     0.910455
      pz      :     0.022728  p :     0.070632
      px      :     0.035766
      py      :     0.012138
 35 H s       :     0.925879  s :     0.925879
      pz      :     0.043526  p :     0.068120
      px      :     0.013606
      py      :     0.010989
 36 H s       :     0.913327  s :     0.913327
      pz      :     0.014345  p :     0.065652
      px      :     0.016588
      py      :     0.034719
 37 H s       :     0.919393  s :     0.919393
      pz      :     0.043924  p :     0.065598
      px      :     0.011123
      py      :     0.010551


                      *****************************
                      * MAYER POPULATION ANALYSIS *
                      *****************************

  NA   - Mulliken gross atomic population
  ZA   - Total nuclear charge
  QA   - Mulliken gross atomic charge
  VA   - Mayer's total valence
  BVA  - Mayer's bonded valence
  FA   - Mayer's free valence

  ATOM       NA         ZA         QA         VA         BVA        FA
  0 C      5.8478     6.0000     0.1522     3.8877     3.8877    -0.0000
  1 N      7.6601     7.0000    -0.6601     2.8040     2.8040    -0.0000
  2 C      5.7979     6.0000     0.2021     3.9215     3.9215    -0.0000
  3 C      5.8070     6.0000     0.1930     3.8891     3.8891     0.0000
  4 N      7.7420     7.0000    -0.7420     2.7915     2.7915    -0.0000
  5 C      5.6559     6.0000     0.3441     3.8082     3.8082    -0.0000
  6 C      6.1396     6.0000    -0.1396     3.9311     3.9311     0.0000
  7 C      5.9871     6.0000     0.0129     3.8623     3.8623     0.0000
  8 C      6.0658     6.0000    -0.0658     3.8712     3.8712    -0.0000
  9 C      6.0089     6.0000    -0.0089     3.9501     3.9501    -0.0000
 10 C      6.2671     6.0000    -0.2671     3.9189     3.9189    -0.0000
 11 C      5.6242     6.0000     0.3758     3.8066     3.8066    -0.0000
 12 N      7.5211     7.0000    -0.5211     3.1939     3.1939    -0.0000
 13 C      5.8682     6.0000     0.1318     3.7760     3.7760    -0.0000
 14 C      6.0899     6.0000    -0.0899     3.8713     3.8713     0.0000
 15 C      6.1308     6.0000    -0.1308     3.9610     3.9610     0.0000
 16 C      5.8979     6.0000     0.1021     3.7467     3.7467     0.0000
 17 C      5.7579     6.0000     0.2421     3.8416     3.8416     0.0000
 18 C      5.7655     6.0000     0.2345     3.8827     3.8827     0.0000
 19 H      0.9949     1.0000     0.0051     0.9792     0.9792    -0.0000
 20 H      0.9633     1.0000     0.0367     0.9829     0.9829    -0.0000
 21 H      0.9687     1.0000     0.0313     0.9849     0.9849    -0.0000
 22 H      0.9906     1.0000     0.0094     0.9738     0.9738    -0.0000
 23 H      0.9636     1.0000     0.0364     0.9801     0.9801    -0.0000
 24 H      0.9522     1.0000     0.0478     0.9802     0.9802     0.0000
 25 H      0.9611     1.0000     0.0389     0.9649     0.9649    -0.0000
 26 H      0.9676     1.0000     0.0324     0.9901     0.9901    -0.0000
 27 H      0.9629     1.0000     0.0371     0.9855     0.9855     0.0000
 28 H      0.9691     1.0000     0.0309     0.9862     0.9862    -0.0000
 29 H      0.9743     1.0000     0.0257     0.9929     0.9929     0.0000
 30 H      0.9498     1.0000     0.0502     0.9790     0.9790     0.0000
 31 H      0.9636     1.0000     0.0364     0.9978     0.9978    -0.0000
 32 H      0.9573     1.0000     0.0427     0.9994     0.9994    -0.0000
 33 H      0.9681     1.0000     0.0319     0.9948     0.9948     0.0000
 34 H      0.9752     1.0000     0.0248     0.9994     0.9994    -0.0000
 35 H      0.9693     1.0000     0.0307     0.9635     0.9635     0.0000
 36 H      0.9560     1.0000     0.0440     0.9940     0.9940     0.0000
 37 H      0.9573     1.0000     0.0427     0.9782     0.9782     0.0000

  Mayer bond orders larger than 0.100000
B(  0-C ,  1-N ) :   0.9397 B(  0-C , 19-H ) :   0.9769 B(  0-C , 20-H ) :   0.9921 
B(  0-C , 21-H ) :   0.9894 B(  1-N ,  2-C ) :   0.9261 B(  1-N , 18-C ) :   0.9289 
B(  2-C ,  3-C ) :   1.0870 B(  2-C , 22-H ) :   0.9599 B(  2-C , 23-H ) :   0.9681 
B(  3-C ,  4-N ) :   0.8842 B(  3-C , 24-H ) :   0.9692 B(  3-C , 25-H ) :   0.9608 
B(  4-N ,  5-C ) :   1.0080 B(  4-N , 17-C ) :   0.8317 B(  5-C ,  6-C ) :   1.3819 
B(  5-C , 10-C ) :   1.3870 B(  6-C ,  7-C ) :   1.4260 B(  6-C , 26-H ) :   1.0003 
B(  7-C ,  8-C ) :   1.4045 B(  7-C , 27-H ) :   0.9994 B(  8-C ,  9-C ) :   1.4222 
B(  8-C , 28-H ) :   1.0017 B(  9-C , 10-C ) :   1.4516 B(  9-C , 29-H ) :   1.0006 
B( 10-C , 11-C ) :   0.9866 B( 11-C , 12-N ) :   0.8841 B( 11-C , 30-H ) :   0.9729 
B( 11-C , 31-H ) :   0.9738 B( 12-N , 13-C ) :   1.1436 B( 12-N , 16-C ) :   1.1237 
B( 13-C , 14-C ) :   1.5779 B( 13-C , 32-H ) :   0.9956 B( 14-C , 15-C ) :   1.2942 
B( 14-C , 33-H ) :   1.0052 B( 15-C , 16-C ) :   1.6164 B( 15-C , 34-H ) :   1.0142 
B( 16-C , 17-C ) :   0.9869 B( 17-C , 18-C ) :   1.0647 B( 17-C , 35-H ) :   0.9451 
B( 18-C , 36-H ) :   0.9734 B( 18-C , 37-H ) :   0.9598 

-------
TIMINGS
-------

Total SCF time: 0 days 0 hours 0 min 22 sec 

Total time                  ....      22.027 sec
Sum of individual times     ....      21.738 sec  ( 98.7%)

Fock matrix formation       ....      20.911 sec  ( 94.9%)
Diagonalization             ....       0.203 sec  (  0.9%)
Density matrix formation    ....       0.027 sec  (  0.1%)
Population analysis         ....       0.025 sec  (  0.1%)
Initial guess               ....       0.124 sec  (  0.6%)
Orbital Transformation      ....       0.000 sec  (  0.0%)
Orbital Orthonormalization  ....       0.000 sec  (  0.0%)
DIIS solution               ....       0.109 sec  (  0.5%)
SOSCF solution              ....       0.188 sec  (  0.9%)

Maximum memory used throughout the entire SCF-calculation: 239.1 MB

-------------------------   --------------------
FINAL SINGLE POINT ENERGY      -779.671727313976
-------------------------   --------------------


                            ***************************************
                            *     ORCA property calculations      *
                            ***************************************

                                    ---------------------
                                    Active property flags
                                    ---------------------
   (+) Dipole Moment


------------------------------------------------------------------------------
                       ORCA ELECTRIC PROPERTIES CALCULATION
------------------------------------------------------------------------------

Dipole Moment Calculation                       ... on
Quadrupole Moment Calculation                   ... off
Polarizability Calculation                      ... off
GBWName                                         ... ./ZINC000000000050/ZINC000000000050.gbw
Electron density                                ... ./ZINC000000000050/ZINC000000000050.scfp
The origin for moment calculation is the CENTER OF MASS  = (-0.481704,  0.182835 -0.163449)

-------------
DIPOLE MOMENT
-------------
                                X             Y             Z
Electronic contribution:    -10.45023       3.30713      -2.74207
Nuclear contribution   :     10.44252      -3.74094       3.47556
                        -----------------------------------------
Total Dipole Moment    :     -0.00771      -0.43381       0.73350
                        -----------------------------------------
Magnitude (a.u.)       :      0.85221
Magnitude (Debye)      :      2.16615



--------------------
Rotational spectrum 
--------------------
 
Rotational constants in cm-1:     0.017362     0.011731     0.007742 
Rotational constants in MHz :   520.504128   351.676729   232.110993 

 Dipole components along the rotational axes: 
x,y,z [a.u.] :     0.078078     0.368250     0.764564 
x,y,z [Debye]:     0.198458     0.936017     1.943368 

 

Timings for individual modules:

Sum of individual times         ...       22.641 sec (=   0.377 min)
GTO integral calculation        ...        0.393 sec (=   0.007 min)   1.7 %
SCF iterations                  ...       22.247 sec (=   0.371 min)  98.3 %
                             ****ORCA TERMINATED NORMALLY****
TOTAL RUN TIME: 0 days 0 hours 0 minutes 23 seconds 11 msec
