
                                 *****************
                                 * O   R   C   A *
                                 *****************

                                            #,                                       
                                            ###                                      
                                            ####                                     
                                            #####                                    
                                            ######                                   
                                           ########,                                 
                                     ,,################,,,,,                         
                               ,,#################################,,                 
                          ,,##########################################,,             
                       ,#########################################, ''#####,          
                    ,#############################################,,   '####,        
                  ,##################################################,,,,####,       
                ,###########''''           ''''###############################       
              ,#####''   ,,,,##########,,,,          '''####'''          '####       
            ,##' ,,,,###########################,,,                        '##       
           ' ,,###''''                  '''############,,,                           
         ,,##''                                '''############,,,,        ,,,,,,###''
      ,#''                                            '''#######################'''  
     '                                                          ''''####''''         
             ,#######,   #######,   ,#######,      ##                                
            ,#'     '#,  ##    ##  ,#'     '#,    #''#        ######   ,####,        
            ##       ##  ##   ,#'  ##            #'  '#       #        #'  '#        
            ##       ##  #######   ##           ,######,      #####,   #    #        
            '#,     ,#'  ##    ##  '#,     ,#' ,#      #,         ##   #,  ,#        
             '#######'   ##     ##  '#######'  #'      '#     #####' # '####'        



                  #######################################################
                  #                        -***-                        #
                  #          Department of theory and spectroscopy      #
                  #    Directorship and core code : Frank Neese         #
                  #        Max Planck Institute fuer Kohlenforschung    #
                  #                Kaiser Wilhelm Platz 1               #
                  #                 D-45470 Muelheim/Ruhr               #
                  #                      Germany                        #
                  #                                                     #
                  #                  All rights reserved                #
                  #                        -***-                        #
                  #######################################################


                         Program Version 5.0.3 -  RELEASE  -


 With contributions from (in alphabetic order):
   Daniel Aravena         : Magnetic Suceptibility
   Michael Atanasov       : Ab Initio Ligand Field Theory (pilot matlab implementation)
   Alexander A. Auer      : GIAO ZORA, VPT2 properties, NMR spectrum
   Ute Becker             : Parallelization
   Giovanni Bistoni       : ED, misc. LED, open-shell LED, HFLD
   Martin Brehm           : Molecular dynamics
   Dmytro Bykov           : SCF Hessian
   Vijay G. Chilkuri      : MRCI spin determinant printing, contributions to CSF-ICE
   Dipayan Datta          : RHF DLPNO-CCSD density
   Achintya Kumar Dutta   : EOM-CC, STEOM-CC
   Dmitry Ganyushin       : Spin-Orbit,Spin-Spin,Magnetic field MRCI
   Miquel Garcia          : C-PCM and meta-GGA Hessian, CC/C-PCM, Gaussian charge scheme
   Yang Guo               : DLPNO-NEVPT2, F12-NEVPT2, CIM, IAO-localization
   Andreas Hansen         : Spin unrestricted coupled pair/coupled cluster methods
   Benjamin Helmich-Paris : MC-RPA, TRAH-SCF, COSX integrals
   Lee Huntington         : MR-EOM, pCC
   Robert Izsak           : Overlap fitted RIJCOSX, COSX-SCS-MP3, EOM
   Marcus Kettner         : VPT2
   Christian Kollmar      : KDIIS, OOCD, Brueckner-CCSD(T), CCSD density, CASPT2, CASPT2-K
   Simone Kossmann        : Meta GGA functionals, TD-DFT gradient, OOMP2, MP2 Hessian
   Martin Krupicka        : Initial AUTO-CI
   Lucas Lang             : DCDCAS
   Marvin Lechner         : AUTO-CI (C++ implementation), FIC-MRCC
   Dagmar Lenk            : GEPOL surface, SMD
   Dimitrios Liakos       : Extrapolation schemes; Compound Job, initial MDCI parallelization
   Dimitrios Manganas     : Further ROCIS development; embedding schemes
   Dimitrios Pantazis     : SARC Basis sets
   Anastasios Papadopoulos: AUTO-CI, single reference methods and gradients
   Taras Petrenko         : DFT Hessian,TD-DFT gradient, ASA, ECA, R-Raman, ABS, FL, XAS/XES, NRVS
   Peter Pinski           : DLPNO-MP2, DLPNO-MP2 Gradient
   Christoph Reimann      : Effective Core Potentials
   Marius Retegan         : Local ZFS, SOC
   Christoph Riplinger    : Optimizer, TS searches, QM/MM, DLPNO-CCSD(T), (RO)-DLPNO pert. Triples
   Tobias Risthaus        : Range-separated hybrids, TD-DFT gradient, RPA, STAB
   Michael Roemelt        : Original ROCIS implementation
   Masaaki Saitow         : Open-shell DLPNO-CCSD energy and density
   Barbara Sandhoefer     : DKH picture change effects
   Avijit Sen             : IP-ROCIS
   Kantharuban Sivalingam : CASSCF convergence, NEVPT2, FIC-MRCI
   Bernardo de Souza      : ESD, SOC TD-DFT
   Georgi Stoychev        : AutoAux, RI-MP2 NMR, DLPNO-MP2 response
   Willem Van den Heuvel  : Paramagnetic NMR
   Boris Wezisla          : Elementary symmetry handling
   Frank Wennmohs         : Technical directorship


 We gratefully acknowledge several colleagues who have allowed us to
 interface, adapt or use parts of their codes:
   Stefan Grimme, W. Hujo, H. Kruse, P. Pracht,  : VdW corrections, initial TS optimization,
                  C. Bannwarth, S. Ehlert          DFT functionals, gCP, sTDA/sTD-DF
   Ed Valeev, F. Pavosevic, A. Kumar             : LibInt (2-el integral package), F12 methods
   Garnet Chan, S. Sharma, J. Yang, R. Olivares  : DMRG
   Ulf Ekstrom                                   : XCFun DFT Library
   Mihaly Kallay                                 : mrcc  (arbitrary order and MRCC methods)
   Jiri Pittner, Ondrej Demel                    : Mk-CCSD
   Frank Weinhold                                : gennbo (NPA and NBO analysis)
   Christopher J. Cramer and Donald G. Truhlar   : smd solvation model
   Lars Goerigk                                  : TD-DFT with DH, B97 family of functionals
   V. Asgeirsson, H. Jonsson                     : NEB implementation
   FAccTs GmbH                                   : IRC, NEB, NEB-TS, DLPNO-Multilevel, CI-OPT
                                                   MM, QMMM, 2- and 3-layer-ONIOM, Crystal-QMMM,
                                                   LR-CPCM, SF, NACMEs, symmetry and pop. for TD-DFT,
                                                   nearIR, NL-DFT gradient (VV10), updates on ESD,
                                                   ML-optimized integration grids
   S Lehtola, MJT Oliveira, MAL Marques          : LibXC Library
   Liviu Ungur et al                             : ANISO software


 Your calculation uses the libint2 library for the computation of 2-el integrals
 For citations please refer to: http://libint.valeyev.net

 Your ORCA version has been built with support for libXC version: 5.1.0
 For citations please refer to: https://tddft.org/programs/libxc/

 This ORCA versions uses:
   CBLAS   interface :  Fast vector & matrix operations
   LAPACKE interface :  Fast linear algebra routines
   SCALAPACK package :  Parallel linear algebra routines
   Shared memory     :  Shared parallel matrices
   BLAS/LAPACK       :  OpenBLAS 0.3.15  USE64BITINT DYNAMIC_ARCH NO_AFFINITY Zen SINGLE_THREADED
        Core in use  :  Zen
   Copyright (c) 2011-2014, The OpenBLAS Project


================================================================================

----- Orbital basis set information -----
Your calculation utilizes the basis: def2-SVP
   F. Weigend and R. Ahlrichs, Phys. Chem. Chem. Phys. 7, 3297 (2005).

================================================================================
                                        WARNINGS
                       Please study these warnings very carefully!
================================================================================


INFO   : the flag for use of the SHARK integral package has been found!

================================================================================
                                       INPUT FILE
================================================================================
NAME = ./ZINC000000000073/ZINC000000000073.inp
|  1> !RHF def2-SVP TightSCF PAL16 
|  2> *xyz 0 1
|  3> O 4.17307912889745 1.9306486201269175 -1.609285756707267
|  4> C 4.778758661808051 0.8007454766665147 -0.9832789485766336
|  5> C 3.710863155305696 -0.04754836453901041 -0.29002936523256206
|  6> O 3.0725045417217385 0.8082840975668575 0.675355058210725
|  7> C 2.681980653108998 -0.5890660128072386 -1.2994031640464363
|  8> O 2.0370945556447944 -1.7717097963487707 -0.7980869322399688
|  9> C 0.8577655100888916 -1.547803813698013 -0.1815699867493609
| 10> N 0.7164297933798129 -0.48988659568132004 0.6167261552616301
| 11> N -0.5651417637699008 -0.6061330775851699 1.0505547815583924
| 12> C -1.111927386111901 0.4139196519641845 1.9359788327596157
| 13> C -1.7186304771299499 1.5538242007571352 1.1572147394504637
| 14> C -3.0991452645067024 1.6044194392072966 0.9125328100271906
| 15> C -3.6480788883662694 2.6554162818906653 0.1758583336001846
| 16> C -2.8260385099350795 3.6639234161853325 -0.3267273630451589
| 17> C -1.4533909615201728 3.622184616398689 -0.09318543255760615
| 18> C -0.9014211411279303 2.5723785943282182 0.641902522163445
| 19> C -1.1938938800636063 -1.7561715514374792 0.6224608208096181
| 20> C -2.4690654552784137 -2.2888136207756946 0.8635245027266696
| 21> C -2.787036469570629 -3.507107743033068 0.25420138348423543
| 22> C -1.8709511667108962 -4.165849401336962 -0.5644395050194769
| 23> C -0.6035331867760123 -3.6222281111543255 -0.799600146898382
| 24> C -0.26541209482076783 -2.3985878728268784 -0.19411760702328568
| 25> H 3.6141885738667403 2.325860524538516 -0.9105787575696803
| 26> H 5.317400307634597 0.22716044458666568 -1.7426108330267076
| 27> H 5.5019075626155205 1.1822097771029765 -0.25603304959135065
| 28> H 4.181817301472825 -0.8706594680391894 0.2583687222283403
| 29> H 2.2237276332459968 0.35967406035098165 0.8989904551722917
| 30> H 1.9507703752733105 0.1736050559943818 -1.6013450351923553
| 31> H 3.2025567641075425 -0.9121112707317912 -2.208325635527453
| 32> H -0.29874360187617005 0.7717983644669074 2.5782617053143553
| 33> H -1.8498592535301954 -0.05751155927365691 2.593656472131681
| 34> H -3.759189487138631 0.8269095015607547 1.290041711289132
| 35> H -4.718011177267956 2.686815500403132 -0.012478137011760284
| 36> H -3.2539042604919746 4.479971930650053 -0.9038499442595571
| 37> H -0.8095047007373584 4.403955796359729 -0.48925334522289843
| 38> H 0.1761614746119435 2.54862734270624 0.8038948422290797
| 39> H -3.192470698324616 -1.7868940686525991 1.496898356660882
| 40> H -3.767452761786729 -3.9472330728460285 0.42141569081928587
| 41> H -2.14287432355849 -5.111549139515642 -1.0279897406083665
| 42> H 0.10867091761727575 -4.135468153529632 -1.4394210270676038
| 43> *
| 44> 
| 45>                          ****END OF INPUT****
================================================================================

                       ****************************
                       * Single Point Calculation *
                       ****************************

---------------------------------
CARTESIAN COORDINATES (ANGSTROEM)
---------------------------------
  O      4.173079    1.930649   -1.609286
  C      4.778759    0.800745   -0.983279
  C      3.710863   -0.047548   -0.290029
  O      3.072505    0.808284    0.675355
  C      2.681981   -0.589066   -1.299403
  O      2.037095   -1.771710   -0.798087
  C      0.857766   -1.547804   -0.181570
  N      0.716430   -0.489887    0.616726
  N     -0.565142   -0.606133    1.050555
  C     -1.111927    0.413920    1.935979
  C     -1.718630    1.553824    1.157215
  C     -3.099145    1.604419    0.912533
  C     -3.648079    2.655416    0.175858
  C     -2.826039    3.663923   -0.326727
  C     -1.453391    3.622185   -0.093185
  C     -0.901421    2.572379    0.641903
  C     -1.193894   -1.756172    0.622461
  C     -2.469065   -2.288814    0.863525
  C     -2.787036   -3.507108    0.254201
  C     -1.870951   -4.165849   -0.564440
  C     -0.603533   -3.622228   -0.799600
  C     -0.265412   -2.398588   -0.194118
  H      3.614189    2.325861   -0.910579
  H      5.317400    0.227160   -1.742611
  H      5.501908    1.182210   -0.256033
  H      4.181817   -0.870659    0.258369
  H      2.223728    0.359674    0.898990
  H      1.950770    0.173605   -1.601345
  H      3.202557   -0.912111   -2.208326
  H     -0.298744    0.771798    2.578262
  H     -1.849859   -0.057512    2.593656
  H     -3.759189    0.826910    1.290042
  H     -4.718011    2.686816   -0.012478
  H     -3.253904    4.479972   -0.903850
  H     -0.809505    4.403956   -0.489253
  H      0.176161    2.548627    0.803895
  H     -3.192471   -1.786894    1.496898
  H     -3.767453   -3.947233    0.421416
  H     -2.142874   -5.111549   -1.027990
  H      0.108671   -4.135468   -1.439421

----------------------------
CARTESIAN COORDINATES (A.U.)
----------------------------
  NO LB      ZA    FRAG     MASS         X           Y           Z
   0 O     8.0000    0    15.999    7.885977    3.648397   -3.041109
   1 C     6.0000    0    12.011    9.030545    1.513190   -1.858128
   2 C     6.0000    0    12.011    7.012515   -0.089853   -0.548076
   3 O     8.0000    0    15.999    5.806192    1.527436    1.276236
   4 C     6.0000    0    12.011    5.068209   -1.113173   -2.455516
   5 O     8.0000    0    15.999    3.849551   -3.348046   -1.508166
   6 C     6.0000    0    12.011    1.620942   -2.924925   -0.343118
   7 N     7.0000    0    14.007    1.353856   -0.925752    1.165444
   8 N     7.0000    0    14.007   -1.067963   -1.145426    1.985261
   9 C     6.0000    0    12.011   -2.101238    0.782195    3.658470
  10 C     6.0000    0    12.011   -3.247741    2.936302    2.186819
  11 C     6.0000    0    12.011   -5.856536    3.031913    1.724437
  12 C     6.0000    0    12.011   -6.893870    5.018010    0.332324
  13 C     6.0000    0    12.011   -5.340439    6.923812   -0.617425
  14 C     6.0000    0    12.011   -2.746511    6.844937   -0.176095
  15 C     6.0000    0    12.011   -1.703439    4.861091    1.213020
  16 C     6.0000    0    12.011   -2.256132   -3.318683    1.176280
  17 C     6.0000    0    12.011   -4.665858   -4.325231    1.631825
  18 C     6.0000    0    12.011   -5.266736   -6.627473    0.480371
  19 C     6.0000    0    12.011   -3.535585   -7.872314   -1.066636
  20 C     6.0000    0    12.011   -1.140512   -6.845019   -1.511025
  21 C     6.0000    0    12.011   -0.501556   -4.532674   -0.366829
  22 H     1.0000    0     1.008    6.829827    4.395239   -1.720744
  23 H     1.0000    0     1.008   10.048430    0.429271   -3.293057
  24 H     1.0000    0     1.008   10.397099    2.234053   -0.483832
  25 H     1.0000    0     1.008    7.902489   -1.645308    0.488246
  26 H     1.0000    0     1.008    4.202236    0.679685    1.698846
  27 H     1.0000    0     1.008    3.686422    0.328066   -3.026104
  28 H     1.0000    0     1.008    6.051955   -1.723641   -4.173131
  29 H     1.0000    0     1.008   -0.564544    1.458488    4.872209
  30 H     1.0000    0     1.008   -3.495727   -0.108681    4.901300
  31 H     1.0000    0     1.008   -7.103839    1.562632    2.437826
  32 H     1.0000    0     1.008   -8.915749    5.077345   -0.023580
  33 H     1.0000    0     1.008   -6.148988    8.465920   -1.708029
  34 H     1.0000    0     1.008   -1.529742    8.322270   -0.924555
  35 H     1.0000    0     1.008    0.332897    4.816208    1.519141
  36 H     1.0000    0     1.008   -6.032895   -3.376740    2.828728
  37 H     1.0000    0     1.008   -7.119454   -7.459189    0.796360
  38 H     1.0000    0     1.008   -4.049446   -9.659428   -1.942619
  39 H     1.0000    0     1.008    0.205358   -7.814902   -2.720112

--------------------------------
INTERNAL COORDINATES (ANGSTROEM)
--------------------------------
 O      0   0   0     0.000000000000     0.00000000     0.00000000
 C      1   0   0     1.426679127910     0.00000000     0.00000000
 C      2   1   0     1.529901381999   109.97615703     0.00000000
 O      3   2   1     1.439415856436   106.48661682   300.82819328
 C      3   2   1     1.539699981309   111.37015152    61.52450056
 O      5   3   2     1.437303851565   111.13441738   156.42032465
 C      6   5   3     1.349460644419   114.51522790    95.17337010
 N      7   6   5     1.332832080700   119.86826125   319.87038793
 N      8   7   6     1.357993437998   102.91295059   180.55623091
 C      9   8   7     1.457208920610   119.22898897   181.73007454
 C     10   9   8     1.507960388749   111.48901869    87.96219582
 C     11  10   9     1.402943406879   120.87938068    97.22916146
 C     12  11  10     1.395926850144   120.40738143   180.81990524
 C     13  12  11     1.394786509172   120.18448862     0.16383792
 C     14  13  12     1.392998655015   119.91270134     0.00000000
 C     15  14  13     1.395391582236   120.04297108     0.03884938
 C      9   8   7     1.378833620969   113.73788215     4.42237703
 C     17   9   8     1.402812111084   132.67586836   177.55148261
 C     18  17   9     1.398792621478   117.54720009   179.98540247
 C     19  18  17     1.394032194331   121.19781462   359.87712310
 C     20  19  18     1.398989982270   120.69280407   359.96192295
 C     17   9   8     1.393404996517   105.22638434   357.34598253
 H      1   2   3     0.978132185615   104.42638708    50.12037793
 H      2   1   3     1.093489607809   108.65416444   122.38377072
 H      2   1   3     1.094233038634   107.22321000   239.57558362
 H      3   2   1     1.095468009039   110.08281046   184.52213971
 H      4   3   2     0.985741343673   105.27387239   162.33807314
 H      5   3   2     1.098865106895   112.37656934   282.30992672
 H      5   3   2     1.096128544092   109.26235908    40.94327337
 H     10   9   8     1.096299378903   107.82829213   326.19238840
 H     10   9   8     1.095139582524   108.44547979   210.93182817
 H     12  11  10     1.087516919179   120.72380379     0.67823177
 H     13  12  11     1.086835608508   120.02152090   179.81797386
 H     14  13  12     1.087232611821   120.13501877   179.74948683
 H     15  14  13     1.087485855580   120.05535299   179.61633081
 H     16  15  14     1.089949506839   119.06272647   179.20167218
 H     18  17   9     1.084620127657   122.06769429   359.94956072
 H     19  18  17     1.087606103589   119.36668762   179.96412563
 H     20  19  18     1.087735730284   119.78987094   180.08913812
 H     21  20  19     1.086287616662   120.62276753   180.13114584

---------------------------
INTERNAL COORDINATES (A.U.)
---------------------------
 O      0   0   0     0.000000000000     0.00000000     0.00000000
 C      1   0   0     2.696032832732     0.00000000     0.00000000
 C      2   1   0     2.891094623885   109.97615703     0.00000000
 O      3   2   1     2.720101761487   106.48661682   300.82819328
 C      3   2   1     2.909611293079   111.37015152    61.52450056
 O      5   3   2     2.716110650689   111.13441738   156.42032465
 C      6   5   3     2.550111046457   114.51522790    95.17337010
 N      7   6   5     2.518687615028   119.86826125   319.87038793
 N      8   7   6     2.566235689478   102.91295059   180.55623091
 C      9   8   7     2.753725779861   119.22898897   181.73007454
 C     10   9   8     2.849632155538   111.48901869    87.96219582
 C     11  10   9     2.651178820392   120.87938068    97.22916146
 C     12  11  10     2.637919449760   120.40738143   180.81990524
 C     13  12  11     2.635764517622   120.18448862     0.16383792
 C     14  13  12     2.632385962899   119.91270134     0.00000000
 C     15  14  13     2.636907940005   120.04297108     0.03884938
 C      9   8   7     2.605617927874   113.73788215     4.42237703
 C     17   9   8     2.650930707297   132.67586836   177.55148261
 C     18  17   9     2.643334972742   117.54720009   179.98540247
 C     19  18  17     2.634339069154   121.19781462   359.87712310
 C     20  19  18     2.643707930589   120.69280407   359.96192295
 C     17   9   8     2.633153837054   105.22638434   357.34598253
 H      1   2   3     1.848401953585   104.42638708    50.12037793
 H      2   1   3     2.066395889049   108.65416444   122.38377072
 H      2   1   3     2.067800769706   107.22321000   239.57558362
 H      3   2   1     2.070134525556   110.08281046   184.52213971
 H      4   3   2     1.862781178426   105.27387239   162.33807314
 H      5   3   2     2.076554110153   112.37656934   282.30992672
 H      5   3   2     2.071382755908   109.26235908    40.94327337
 H     10   9   8     2.071705586915   107.82829213   326.19238840
 H     10   9   8     2.069513889387   108.44547979   210.93182817
 H     12  11  10     2.055109143254   120.72380379     0.67823177
 H     13  12  11     2.053821652673   120.02152090   179.81797386
 H     14  13  12     2.054571880210   120.13501877   179.74948683
 H     15  14  13     2.055050441558   120.05535299   179.61633081
 H     16  15  14     2.059706067728   119.06272647   179.20167218
 H     18  17   9     2.049635000610   122.06769429   359.94956072
 H     19  18  17     2.055277677364   119.36668762   179.96412563
 H     20  19  18     2.055522636317   119.78987094   180.08913812
 H     21  20  19     2.052786098161   120.62276753   180.13114584

---------------------
BASIS SET INFORMATION
---------------------
There are 4 groups of distinct atoms

 Group   1 Type O   : 7s4p1d contracted to 3s2p1d pattern {511/31/1}
 Group   2 Type C   : 7s4p1d contracted to 3s2p1d pattern {511/31/1}
 Group   3 Type N   : 7s4p1d contracted to 3s2p1d pattern {511/31/1}
 Group   4 Type H   : 4s1p contracted to 2s1p pattern {31/1}

Atom   0O    basis set group =>   1
Atom   1C    basis set group =>   2
Atom   2C    basis set group =>   2
Atom   3O    basis set group =>   1
Atom   4C    basis set group =>   2
Atom   5O    basis set group =>   1
Atom   6C    basis set group =>   2
Atom   7N    basis set group =>   3
Atom   8N    basis set group =>   3
Atom   9C    basis set group =>   2
Atom  10C    basis set group =>   2
Atom  11C    basis set group =>   2
Atom  12C    basis set group =>   2
Atom  13C    basis set group =>   2
Atom  14C    basis set group =>   2
Atom  15C    basis set group =>   2
Atom  16C    basis set group =>   2
Atom  17C    basis set group =>   2
Atom  18C    basis set group =>   2
Atom  19C    basis set group =>   2
Atom  20C    basis set group =>   2
Atom  21C    basis set group =>   2
Atom  22H    basis set group =>   4
Atom  23H    basis set group =>   4
Atom  24H    basis set group =>   4
Atom  25H    basis set group =>   4
Atom  26H    basis set group =>   4
Atom  27H    basis set group =>   4
Atom  28H    basis set group =>   4
Atom  29H    basis set group =>   4
Atom  30H    basis set group =>   4
Atom  31H    basis set group =>   4
Atom  32H    basis set group =>   4
Atom  33H    basis set group =>   4
Atom  34H    basis set group =>   4
Atom  35H    basis set group =>   4
Atom  36H    basis set group =>   4
Atom  37H    basis set group =>   4
Atom  38H    basis set group =>   4
Atom  39H    basis set group =>   4


           ************************************************************
           *        Program running with 16 parallel MPI-processes    *
           *              working on a common directory               *
           ************************************************************
------------------------------------------------------------------------------
                           ORCA GTO INTEGRAL CALCULATION
------------------------------------------------------------------------------
------------------------------------------------------------------------------
                   ___                                                        
                  /   \      - P O W E R E D   B Y -                         
                 /     \                                                     
                 |  |  |   _    _      __       _____    __    __             
                 |  |  |  | |  | |    /  \     |  _  \  |  |  /  |          
                  \  \/   | |  | |   /    \    | | | |  |  | /  /          
                 / \  \   | |__| |  /  /\  \   | |_| |  |  |/  /          
                |  |  |   |  __  | /  /__\  \  |    /   |      \           
                |  |  |   | |  | | |   __   |  |    \   |  |\   \          
                \     /   | |  | | |  |  |  |  | |\  \  |  | \   \       
                 \___/    |_|  |_| |__|  |__|  |_| \__\ |__|  \__/        
                                                                              
                      - O R C A' S   B I G   F R I E N D -                    
                                      &                                       
                       - I N T E G R A L  F E E D E R -                       
                                                                              
 v1 FN, 2020, v2 2021                                                         
------------------------------------------------------------------------------


Reading SHARK input file ./ZINC000000000073/ZINC000000000073.SHARKINP.tmp ... ok
----------------------
SHARK INTEGRAL PACKAGE
----------------------

Number of atoms                             ...     40
Number of basis functions                   ...    398
Number of shells                            ...    186
Maximum angular momentum                    ...      2
Integral batch strategy                     ... SHARK/LIBINT Hybrid
RI-J (if used) integral strategy            ... SPLIT-RIJ (Revised 2003 algorithm where possible)
Printlevel                                  ...      1
Contraction scheme used                     ... SEGMENTED contraction
Coulomb Range Separation                    ... NOT USED
Exchange Range Separation                   ... NOT USED
Finite Nucleus Model                        ... NOT USED
Auxiliary Coulomb fitting basis             ... NOT available
Auxiliary J/K fitting basis                 ... NOT available
Auxiliary Correlation fitting basis         ... NOT available
Auxiliary 'external' fitting basis          ... NOT available
Integral threshold                          ...     2.500000e-11
Primitive cut-off                           ...     2.500000e-12
Primitive pair pre-selection threshold      ...     2.500000e-12

Calculating pre-screening integrals         ... done (  0.0 sec) Dimension = 186
Organizing shell pair data                  ... done (  0.1 sec)
Shell pair information
Total number of shell pairs                 ...     17391
Shell pairs after pre-screening             ...     12729
Total number of primitive shell pairs       ...     63175
Primitive shell pairs kept                  ...     29530
          la=0 lb=0:   3973 shell pairs
          la=1 lb=0:   4744 shell pairs
          la=1 lb=1:   1467 shell pairs
          la=2 lb=0:   1501 shell pairs
          la=2 lb=1:    907 shell pairs
          la=2 lb=2:    137 shell pairs

Calculating one electron integrals          ... done (  0.0 sec)
Calculating Nuclear repulsion               ... done (  0.0 sec) ENN=   1762.724415085968 Eh

SHARK setup successfully completed in   0.2 seconds

Maximum memory used throughout the entire GTOINT-calculation: 19.2 MB


           ************************************************************
           *        Program running with 16 parallel MPI-processes    *
           *              working on a common directory               *
           ************************************************************
-------------------------------------------------------------------------------
                                 ORCA SCF
-------------------------------------------------------------------------------

------------
SCF SETTINGS
------------
Hamiltonian:
 Ab initio Hamiltonian  Method          .... Hartree-Fock(GTOs)


General Settings:
 Integral files         IntName         .... ./ZINC000000000073/ZINC000000000073
 Hartree-Fock type      HFTyp           .... RHF
 Total Charge           Charge          ....    0
 Multiplicity           Mult            ....    1
 Number of Electrons    NEL             ....  158
 Basis Dimension        Dim             ....  398
 Nuclear Repulsion      ENuc            ....   1762.7244150860 Eh

Convergence Acceleration:
 DIIS                   CNVDIIS         .... on
   Start iteration      DIISMaxIt       ....    12
   Startup error        DIISStart       ....  0.200000
   # of expansion vecs  DIISMaxEq       ....     5
   Bias factor          DIISBfac        ....   1.050
   Max. coefficient     DIISMaxC        ....  10.000
 Trust-Rad. Augm. Hess. CNVTRAH         .... auto
   Auto Start mean grad. ratio tolernc. ....  1.125000
   Auto Start start iteration           ....    20
   Auto Start num. interpolation iter.  ....    10
   Max. Number of Micro iterations      ....    16
   Max. Number of Macro iterations      .... Maxiter - #DIIS iter
   Number of Davidson start vectors     ....     2
   Converg. threshold I  (grad. norm)   ....   1.000e-05
   Converg. threshold II (energy diff.) ....   1.000e-08
   Grad. Scal. Fac. for Micro threshold ....   0.100
   Minimum threshold for Micro iter.    ....   0.010
   NR start threshold (gradient norm)   ....   0.001
   Initial trust radius                 ....   0.400
   Minimum AH scaling param. (alpha)    ....   1.000
   Maximum AH scaling param. (alpha)    .... 1000.000
   Orbital update algorithm             .... Taylor
   White noise on init. David. guess    .... on
   Maximum white noise                  ....   0.010
   Quad. conv. algorithm                .... NR
 SOSCF                  CNVSOSCF        .... on
   Start iteration      SOSCFMaxIt      ....   150
   Startup grad/error   SOSCFStart      ....  0.003300
 Level Shifting         CNVShift        .... on
   Level shift para.    LevelShift      ....    0.2500
   Turn off err/grad.   ShiftErr        ....    0.0010
 Zerner damping         CNVZerner       .... off
 Static damping         CNVDamp         .... on
   Fraction old density DampFac         ....    0.7000
   Max. Damping (<1)    DampMax         ....    0.9800
   Min. Damping (>=0)   DampMin         ....    0.0000
   Turn off err/grad.   DampErr         ....    0.1000
 Fernandez-Rico         CNVRico         .... off

SCF Procedure:
 Maximum # iterations   MaxIter         ....   125
 SCF integral mode      SCFMode         .... Direct
   Integral package                     .... SHARK and LIBINT hybrid scheme
 Reset frequency        DirectResetFreq ....    20
 Integral Threshold     Thresh          ....  2.500e-11 Eh
 Primitive CutOff       TCut            ....  2.500e-12 Eh

Convergence Tolerance:
 Convergence Check Mode ConvCheckMode   .... Total+1el-Energy
 Convergence forced     ConvForced      .... 0
 Energy Change          TolE            ....  1.000e-08 Eh
 1-El. energy change                    ....  1.000e-05 Eh
 Orbital Gradient       TolG            ....  1.000e-05
 Orbital Rotation angle TolX            ....  1.000e-05
 DIIS Error             TolErr          ....  5.000e-07


Diagonalization of the overlap matrix:
Smallest eigenvalue                        ... 2.533e-04
Time for diagonalization                   ...    0.020 sec
Threshold for overlap eigenvalues          ... 1.000e-08
Number of eigenvalues below threshold      ... 0
Time for construction of square roots      ...    0.013 sec
Total time needed                          ...    0.034 sec

Time for model grid setup =    0.170 sec

------------------------------
INITIAL GUESS: MODEL POTENTIAL
------------------------------
Loading Hartree-Fock densities                     ... done
Calculating cut-offs                               ... done
Initializing the effective Hamiltonian             ... done
Setting up the integral package (SHARK)            ... done
Starting the Coulomb interaction                   ... done (   0.1 sec)
Reading the grid                                   ... done
Mapping shells                                     ... done
Starting the XC term evaluation                    ... done (   0.0 sec)
Transforming the Hamiltonian                       ... done (   0.0 sec)
Diagonalizing the Hamiltonian                      ... done (   0.0 sec)
Back transforming the eigenvectors                 ... done (   0.0 sec)
Now organizing SCF variables                       ... done
                      ------------------
                      INITIAL GUESS DONE (   0.3 sec)
                      ------------------
--------------
SCF ITERATIONS
--------------
ITER       Energy         Delta-E        Max-DP      RMS-DP      [F,P]     Damp
               ***  Starting incremental Fock matrix formation  ***
  0   -986.2876948496   0.000000000000 0.06576170  0.00186072  0.2186875 0.7000
  1   -986.5076318963  -0.219937046641 0.04986588  0.00145962  0.1314053 0.7000
                               ***Turning on DIIS***
  2   -986.6457476463  -0.138115749980 0.12033265  0.00342036  0.0717576 0.0000
  3   -985.8532582294   0.792489416898 0.02935985  0.00057541  0.0404147 0.0000
  4   -987.0244665266  -1.171208297259 0.00776858  0.00023145  0.0056915 0.0000
                      *** Initiating the SOSCF procedure ***
                           *** Shutting down DIIS ***
                      *** Re-Reading the Fockian *** 
                      *** Removing any level shift *** 
ITER      Energy       Delta-E        Grad      Rot      Max-DP    RMS-DP
  5   -986.94113617   0.0833303556  0.001899  0.001899  0.003107  0.000095
               *** Restarting incremental Fock matrix formation ***
  6   -986.94274929  -0.0016131194  0.001351  0.003580  0.002005  0.000047
  7   -986.94282523  -0.0000759371  0.000542  0.003895  0.002161  0.000055
  8   -986.94285592  -0.0000306895  0.000295  0.000638  0.000561  0.000013
  9   -986.94286020  -0.0000042852  0.000133  0.000302  0.000239  0.000007
 10   -986.94286109  -0.0000008852  0.000057  0.000353  0.000107  0.000003
 11   -986.94286134  -0.0000002488  0.000017  0.000101  0.000041  0.000001
 12   -986.94286136  -0.0000000254  0.000006  0.000031  0.000022  0.000001
 13   -986.94286136  -0.0000000009  0.000003  0.000008  0.000008  0.000000
                  ***Gradient check signals convergence***
              ***Rediagonalizing the Fockian in SOSCF/NRSCF***

               *****************************************************
               *                     SUCCESS                       *
               *           SCF CONVERGED AFTER  14 CYCLES          *
               *****************************************************


----------------
TOTAL SCF ENERGY
----------------

Total Energy       :         -986.94286137 Eh          -26856.08059 eV

Components:
Nuclear Repulsion  :         1762.72441509 Eh           47966.16989 eV
Electronic Energy  :        -2749.66727645 Eh          -74822.25048 eV
One Electron Energy:        -4848.25065907 Eh         -131927.60750 eV
Two Electron Energy:         2098.58338262 Eh           57105.35702 eV

Virial components:
Potential Energy   :        -1969.36705540 Eh          -53589.20200 eV
Kinetic Energy     :          982.42419403 Eh           26733.12141 eV
Virial Ratio       :            2.00459951


---------------
SCF CONVERGENCE
---------------

  Last Energy change         ...   -3.7408e-09  Tolerance :   1.0000e-08
  Last MAX-Density change    ...    1.8722e-06  Tolerance :   1.0000e-07
  Last RMS-Density change    ...    5.5242e-08  Tolerance :   5.0000e-09
  Last Orbital Gradient      ...    1.2933e-06  Tolerance :   1.0000e-05
  Last Orbital Rotation      ...    2.7094e-06  Tolerance :   1.0000e-05

             **** THE GBW FILE WAS UPDATED (./ZINC000000000073/ZINC000000000073.gbw) ****
             **** DENSITY ./ZINC000000000073/ZINC000000000073.scfp WAS UPDATED ****
             **** ENERGY FILE WAS UPDATED (./ZINC000000000073/ZINC000000000073.en.tmp) ****
             **** THE GBW FILE WAS UPDATED (./ZINC000000000073/ZINC000000000073.gbw) ****
             **** DENSITY ./ZINC000000000073/ZINC000000000073.scfp WAS UPDATED ****
----------------
ORBITAL ENERGIES
----------------

  NO   OCC          E(Eh)            E(eV) 
   0   2.0000     -20.589534      -560.2697 
   1   2.0000     -20.533346      -558.7407 
   2   2.0000     -20.524622      -558.5033 
   3   2.0000     -15.634896      -425.4471 
   4   2.0000     -15.604569      -424.6219 
   5   2.0000     -11.342192      -308.6367 
   6   2.0000     -11.297341      -307.4163 
   7   2.0000     -11.292042      -307.2721 
   8   2.0000     -11.291875      -307.2675 
   9   2.0000     -11.276267      -306.8428 
  10   2.0000     -11.270862      -306.6957 
  11   2.0000     -11.267996      -306.6178 
  12   2.0000     -11.264899      -306.5335 
  13   2.0000     -11.257679      -306.3370 
  14   2.0000     -11.250876      -306.1519 
  15   2.0000     -11.247119      -306.0497 
  16   2.0000     -11.246389      -306.0298 
  17   2.0000     -11.245185      -305.9970 
  18   2.0000     -11.244862      -305.9882 
  19   2.0000     -11.243950      -305.9634 
  20   2.0000     -11.242984      -305.9371 
  21   2.0000     -11.242273      -305.9178 
  22   2.0000      -1.424502       -38.7627 
  23   2.0000      -1.367711       -37.2173 
  24   2.0000      -1.335154       -36.3314 
  25   2.0000      -1.303278       -35.4640 
  26   2.0000      -1.162108       -31.6226 
  27   2.0000      -1.157227       -31.4898 
  28   2.0000      -1.123601       -30.5747 
  29   2.0000      -1.052112       -28.6294 
  30   2.0000      -1.038708       -28.2647 
  31   2.0000      -1.015867       -27.6432 
  32   2.0000      -1.009873       -27.4801 
  33   2.0000      -1.002966       -27.2921 
  34   2.0000      -0.936726       -25.4896 
  35   2.0000      -0.911354       -24.7992 
  36   2.0000      -0.874692       -23.8016 
  37   2.0000      -0.838205       -22.8087 
  38   2.0000      -0.825563       -22.4647 
  39   2.0000      -0.814185       -22.1551 
  40   2.0000      -0.800062       -21.7708 
  41   2.0000      -0.780841       -21.2478 
  42   2.0000      -0.737357       -20.0645 
  43   2.0000      -0.724256       -19.7080 
  44   2.0000      -0.709555       -19.3080 
  45   2.0000      -0.703684       -19.1482 
  46   2.0000      -0.673553       -18.3283 
  47   2.0000      -0.662780       -18.0352 
  48   2.0000      -0.657383       -17.8883 
  49   2.0000      -0.648570       -17.6485 
  50   2.0000      -0.646145       -17.5825 
  51   2.0000      -0.639633       -17.4053 
  52   2.0000      -0.633260       -17.2319 
  53   2.0000      -0.624838       -17.0027 
  54   2.0000      -0.619546       -16.8587 
  55   2.0000      -0.606909       -16.5148 
  56   2.0000      -0.594087       -16.1659 
  57   2.0000      -0.591471       -16.0948 
  58   2.0000      -0.580707       -15.8018 
  59   2.0000      -0.565617       -15.3912 
  60   2.0000      -0.562541       -15.3075 
  61   2.0000      -0.551880       -15.0174 
  62   2.0000      -0.538362       -14.6496 
  63   2.0000      -0.526296       -14.3212 
  64   2.0000      -0.513649       -13.9771 
  65   2.0000      -0.510471       -13.8906 
  66   2.0000      -0.503223       -13.6934 
  67   2.0000      -0.499261       -13.5856 
  68   2.0000      -0.497628       -13.5411 
  69   2.0000      -0.490396       -13.3444 
  70   2.0000      -0.481719       -13.1082 
  71   2.0000      -0.471615       -12.8333 
  72   2.0000      -0.430978       -11.7275 
  73   2.0000      -0.426854       -11.6153 
  74   2.0000      -0.393781       -10.7153 
  75   2.0000      -0.350646        -9.5416 
  76   2.0000      -0.343286        -9.3413 
  77   2.0000      -0.340723        -9.2715 
  78   2.0000      -0.302758        -8.2385 
  79   0.0000       0.076299         2.0762 
  80   0.0000       0.120603         3.2818 
  81   0.0000       0.123726         3.3668 
  82   0.0000       0.144472         3.9313 
  83   0.0000       0.166112         4.5201 
  84   0.0000       0.184474         5.0198 
  85   0.0000       0.193015         5.2522 
  86   0.0000       0.197816         5.3828 
  87   0.0000       0.203480         5.5370 
  88   0.0000       0.213375         5.8062 
  89   0.0000       0.221150         6.0178 
  90   0.0000       0.221924         6.0389 
  91   0.0000       0.231821         6.3082 
  92   0.0000       0.240032         6.5316 
  93   0.0000       0.246747         6.7143 
  94   0.0000       0.253312         6.8930 
  95   0.0000       0.259610         7.0643 
  96   0.0000       0.266436         7.2501 
  97   0.0000       0.271271         7.3817 
  98   0.0000       0.285634         7.7725 
  99   0.0000       0.298000         8.1090 
 100   0.0000       0.302881         8.2418 
 101   0.0000       0.316976         8.6254 
 102   0.0000       0.328460         8.9378 
 103   0.0000       0.334908         9.1133 
 104   0.0000       0.349673         9.5151 
 105   0.0000       0.352055         9.5799 
 106   0.0000       0.361825         9.8458 
 107   0.0000       0.368141        10.0176 
 108   0.0000       0.401188        10.9169 
 109   0.0000       0.404729        11.0132 
 110   0.0000       0.417585        11.3631 
 111   0.0000       0.423616        11.5272 
 112   0.0000       0.427272        11.6267 
 113   0.0000       0.439513        11.9597 
 114   0.0000       0.447764        12.1843 
 115   0.0000       0.455317        12.3898 
 116   0.0000       0.456473        12.4213 
 117   0.0000       0.470151        12.7935 
 118   0.0000       0.480839        13.0843 
 119   0.0000       0.483921        13.1682 
 120   0.0000       0.487122        13.2553 
 121   0.0000       0.497226        13.5302 
 122   0.0000       0.499742        13.5987 
 123   0.0000       0.527239        14.3469 
 124   0.0000       0.540981        14.7208 
 125   0.0000       0.547793        14.9062 
 126   0.0000       0.567773        15.4499 
 127   0.0000       0.586427        15.9575 
 128   0.0000       0.589965        16.0538 
 129   0.0000       0.599691        16.3184 
 130   0.0000       0.615515        16.7490 
 131   0.0000       0.616927        16.7874 
 132   0.0000       0.640008        17.4155 
 133   0.0000       0.644423        17.5356 
 134   0.0000       0.652430        17.7535 
 135   0.0000       0.661913        18.0116 
 136   0.0000       0.671148        18.2629 
 137   0.0000       0.673176        18.3181 
 138   0.0000       0.679578        18.4923 
 139   0.0000       0.691335        18.8122 
 140   0.0000       0.694511        18.8986 
 141   0.0000       0.697681        18.9849 
 142   0.0000       0.707308        19.2468 
 143   0.0000       0.720867        19.6158 
 144   0.0000       0.721699        19.6384 
 145   0.0000       0.723439        19.6858 
 146   0.0000       0.731671        19.9098 
 147   0.0000       0.746763        20.3205 
 148   0.0000       0.750993        20.4355 
 149   0.0000       0.757230        20.6053 
 150   0.0000       0.763517        20.7763 
 151   0.0000       0.781614        21.2688 
 152   0.0000       0.789202        21.4753 
 153   0.0000       0.793231        21.5849 
 154   0.0000       0.804718        21.8975 
 155   0.0000       0.815580        22.1931 
 156   0.0000       0.823318        22.4036 
 157   0.0000       0.832458        22.6523 
 158   0.0000       0.834525        22.7086 
 159   0.0000       0.844808        22.9884 
 160   0.0000       0.853276        23.2188 
 161   0.0000       0.859200        23.3800 
 162   0.0000       0.861173        23.4337 
 163   0.0000       0.863228        23.4896 
 164   0.0000       0.869245        23.6534 
 165   0.0000       0.870285        23.6817 
 166   0.0000       0.878327        23.9005 
 167   0.0000       0.882545        24.0153 
 168   0.0000       0.887197        24.1418 
 169   0.0000       0.890481        24.2312 
 170   0.0000       0.898785        24.4572 
 171   0.0000       0.901167        24.5220 
 172   0.0000       0.910092        24.7649 
 173   0.0000       0.914212        24.8770 
 174   0.0000       0.920801        25.0563 
 175   0.0000       0.925039        25.1716 
 176   0.0000       0.929036        25.2804 
 177   0.0000       0.934255        25.4224 
 178   0.0000       0.940195        25.5840 
 179   0.0000       0.942171        25.6378 
 180   0.0000       0.948981        25.8231 
 181   0.0000       0.953279        25.9400 
 182   0.0000       0.957523        26.0555 
 183   0.0000       0.970823        26.4174 
 184   0.0000       0.973833        26.4993 
 185   0.0000       0.976025        26.5590 
 186   0.0000       0.985756        26.8238 
 187   0.0000       0.996544        27.1173 
 188   0.0000       1.001256        27.2456 
 189   0.0000       1.019720        27.7480 
 190   0.0000       1.024130        27.8680 
 191   0.0000       1.033633        28.1266 
 192   0.0000       1.062372        28.9086 
 193   0.0000       1.069320        29.0977 
 194   0.0000       1.090972        29.6869 
 195   0.0000       1.103294        30.0222 
 196   0.0000       1.112575        30.2747 
 197   0.0000       1.119360        30.4593 
 198   0.0000       1.135112        30.8880 
 199   0.0000       1.161535        31.6070 
 200   0.0000       1.172424        31.9033 
 201   0.0000       1.187147        32.3039 
 202   0.0000       1.194671        32.5086 
 203   0.0000       1.214798        33.0563 
 204   0.0000       1.226845        33.3842 
 205   0.0000       1.254114        34.1262 
 206   0.0000       1.258431        34.2437 
 207   0.0000       1.284305        34.9477 
 208   0.0000       1.296034        35.2669 
 209   0.0000       1.304209        35.4893 
 210   0.0000       1.316522        35.8244 
 211   0.0000       1.332031        36.2464 
 212   0.0000       1.358602        36.9694 
 213   0.0000       1.365705        37.1627 
 214   0.0000       1.408612        38.3303 
 215   0.0000       1.411601        38.4116 
 216   0.0000       1.414523        38.4911 
 217   0.0000       1.442702        39.2579 
 218   0.0000       1.445516        39.3345 
 219   0.0000       1.453691        39.5569 
 220   0.0000       1.464837        39.8602 
 221   0.0000       1.471862        40.0514 
 222   0.0000       1.477738        40.2113 
 223   0.0000       1.490978        40.5716 
 224   0.0000       1.495124        40.6844 
 225   0.0000       1.496667        40.7264 
 226   0.0000       1.509041        41.0631 
 227   0.0000       1.511358        41.1261 
 228   0.0000       1.529449        41.6184 
 229   0.0000       1.533498        41.7286 
 230   0.0000       1.548462        42.1358 
 231   0.0000       1.554680        42.3050 
 232   0.0000       1.557449        42.3803 
 233   0.0000       1.558511        42.4093 
 234   0.0000       1.566364        42.6229 
 235   0.0000       1.576618        42.9020 
 236   0.0000       1.605883        43.6983 
 237   0.0000       1.616565        43.9890 
 238   0.0000       1.636474        44.5307 
 239   0.0000       1.651067        44.9278 
 240   0.0000       1.653585        44.9963 
 241   0.0000       1.667454        45.3737 
 242   0.0000       1.686595        45.8946 
 243   0.0000       1.697916        46.2026 
 244   0.0000       1.726432        46.9786 
 245   0.0000       1.767153        48.0867 
 246   0.0000       1.778530        48.3963 
 247   0.0000       1.834362        49.9155 
 248   0.0000       1.841557        50.1113 
 249   0.0000       1.848932        50.3120 
 250   0.0000       1.867914        50.8285 
 251   0.0000       1.873127        50.9704 
 252   0.0000       1.879471        51.1430 
 253   0.0000       1.901917        51.7538 
 254   0.0000       1.922633        52.3175 
 255   0.0000       1.932087        52.5748 
 256   0.0000       1.940558        52.8053 
 257   0.0000       1.950987        53.0891 
 258   0.0000       1.961692        53.3804 
 259   0.0000       1.971078        53.6358 
 260   0.0000       1.974402        53.7262 
 261   0.0000       1.993127        54.2358 
 262   0.0000       1.999151        54.3997 
 263   0.0000       2.011478        54.7351 
 264   0.0000       2.013425        54.7881 
 265   0.0000       2.017145        54.8893 
 266   0.0000       2.021948        55.0200 
 267   0.0000       2.029259        55.2190 
 268   0.0000       2.038399        55.4677 
 269   0.0000       2.039828        55.5065 
 270   0.0000       2.045030        55.6481 
 271   0.0000       2.048423        55.7404 
 272   0.0000       2.054316        55.9008 
 273   0.0000       2.056686        55.9653 
 274   0.0000       2.061910        56.1074 
 275   0.0000       2.068961        56.2993 
 276   0.0000       2.087582        56.8060 
 277   0.0000       2.093361        56.9633 
 278   0.0000       2.100685        57.1625 
 279   0.0000       2.112587        57.4864 
 280   0.0000       2.121835        57.7381 
 281   0.0000       2.129682        57.9516 
 282   0.0000       2.136359        58.1333 
 283   0.0000       2.139415        58.2164 
 284   0.0000       2.148167        58.4546 
 285   0.0000       2.164189        58.8906 
 286   0.0000       2.168324        59.0031 
 287   0.0000       2.172070        59.1050 
 288   0.0000       2.194486        59.7150 
 289   0.0000       2.208740        60.1029 
 290   0.0000       2.222886        60.4878 
 291   0.0000       2.227464        60.6124 
 292   0.0000       2.232828        60.7583 
 293   0.0000       2.240488        60.9668 
 294   0.0000       2.254924        61.3596 
 295   0.0000       2.267460        61.7007 
 296   0.0000       2.268302        61.7236 
 297   0.0000       2.273740        61.8716 
 298   0.0000       2.286865        62.2288 
 299   0.0000       2.288809        62.2817 
 300   0.0000       2.291174        62.3460 
 301   0.0000       2.295267        62.4574 
 302   0.0000       2.324800        63.2610 
 303   0.0000       2.344442        63.7955 
 304   0.0000       2.353481        64.0415 
 305   0.0000       2.368399        64.4474 
 306   0.0000       2.378327        64.7176 
 307   0.0000       2.398880        65.2769 
 308   0.0000       2.408472        65.5379 
 309   0.0000       2.419391        65.8350 
 310   0.0000       2.431668        66.1690 
 311   0.0000       2.446728        66.5789 
 312   0.0000       2.453795        66.7711 
 313   0.0000       2.463346        67.0311 
 314   0.0000       2.472084        67.2688 
 315   0.0000       2.485569        67.6358 
 316   0.0000       2.497692        67.9657 
 317   0.0000       2.503630        68.1272 
 318   0.0000       2.506151        68.1958 
 319   0.0000       2.537496        69.0488 
 320   0.0000       2.558213        69.6125 
 321   0.0000       2.562751        69.7360 
 322   0.0000       2.566883        69.8484 
 323   0.0000       2.584115        70.3173 
 324   0.0000       2.601756        70.7974 
 325   0.0000       2.610377        71.0320 
 326   0.0000       2.616907        71.2097 
 327   0.0000       2.627339        71.4935 
 328   0.0000       2.635865        71.7255 
 329   0.0000       2.647494        72.0420 
 330   0.0000       2.664664        72.5092 
 331   0.0000       2.669297        72.6353 
 332   0.0000       2.684542        73.0501 
 333   0.0000       2.699472        73.4564 
 334   0.0000       2.718250        73.9673 
 335   0.0000       2.724034        74.1247 
 336   0.0000       2.733213        74.3745 
 337   0.0000       2.752699        74.9047 
 338   0.0000       2.787799        75.8599 
 339   0.0000       2.811740        76.5113 
 340   0.0000       2.819402        76.7198 
 341   0.0000       2.857812        77.7650 
 342   0.0000       2.872304        78.1594 
 343   0.0000       2.890586        78.6568 
 344   0.0000       2.905737        79.0691 
 345   0.0000       2.919422        79.4415 
 346   0.0000       2.927605        79.6642 
 347   0.0000       2.931740        79.7767 
 348   0.0000       2.951729        80.3206 
 349   0.0000       2.967339        80.7454 
 350   0.0000       2.973064        80.9012 
 351   0.0000       2.977866        81.0319 
 352   0.0000       3.051470        83.0347 
 353   0.0000       3.070621        83.5558 
 354   0.0000       3.076884        83.7263 
 355   0.0000       3.078623        83.7736 
 356   0.0000       3.083654        83.9105 
 357   0.0000       3.089822        84.0783 
 358   0.0000       3.111005        84.6547 
 359   0.0000       3.117660        84.8359 
 360   0.0000       3.132868        85.2497 
 361   0.0000       3.164269        86.1041 
 362   0.0000       3.187352        86.7323 
 363   0.0000       3.224179        87.7344 
 364   0.0000       3.229357        87.8753 
 365   0.0000       3.232151        87.9513 
 366   0.0000       3.236631        88.0732 
 367   0.0000       3.255686        88.5917 
 368   0.0000       3.265467        88.8579 
 369   0.0000       3.292089        89.5823 
 370   0.0000       3.302839        89.8748 
 371   0.0000       3.324910        90.4754 
 372   0.0000       3.352128        91.2161 
 373   0.0000       3.365607        91.5828 
 374   0.0000       3.380629        91.9916 
 375   0.0000       3.391396        92.2846 
 376   0.0000       3.404001        92.6276 
 377   0.0000       3.414175        92.9044 
 378   0.0000       3.428722        93.3003 
 379   0.0000       3.441706        93.6536 
 380   0.0000       3.455825        94.0378 
 381   0.0000       3.463652        94.2508 
 382   0.0000       3.491932        95.0203 
 383   0.0000       3.556674        96.7820 
 384   0.0000       3.572735        97.2191 
 385   0.0000       3.597421        97.8908 
 386   0.0000       3.599780        97.9550 
 387   0.0000       3.622652        98.5774 
 388   0.0000       3.656526        99.4991 
 389   0.0000       3.718520       101.1861 
 390   0.0000       3.772429       102.6530 
 391   0.0000       3.810739       103.6955 
 392   0.0000       3.918857       106.6375 
 393   0.0000       4.013022       109.1999 
 394   0.0000       4.023877       109.4953 
 395   0.0000       4.057065       110.3984 
 396   0.0000       4.192515       114.0841 
 397   0.0000       4.252731       115.7227 

                    ********************************
                    * MULLIKEN POPULATION ANALYSIS *
                    ********************************

-----------------------
MULLIKEN ATOMIC CHARGES
-----------------------
   0 O :   -0.493615
   1 C :    0.305210
   2 C :    0.101578
   3 O :   -0.520759
   4 C :    0.288395
   5 O :   -0.560009
   6 C :    0.535834
   7 N :   -0.310142
   8 N :   -0.460462
   9 C :    0.345237
  10 C :   -0.165949
  11 C :   -0.030191
  12 C :   -0.033990
  13 C :   -0.037002
  14 C :   -0.033588
  15 C :   -0.021249
  16 C :    0.356676
  17 C :   -0.126341
  18 C :    0.015798
  19 C :   -0.077847
  20 C :    0.063850
  21 C :   -0.287816
  22 H :    0.209780
  23 H :    0.025470
  24 H :    0.029618
  25 H :    0.034590
  26 H :    0.252142
  27 H :    0.059297
  28 H :    0.040266
  29 H :    0.061911
  30 H :    0.043743
  31 H :    0.027878
  32 H :    0.041362
  33 H :    0.044092
  34 H :    0.046009
  35 H :    0.049917
  36 H :    0.031121
  37 H :    0.051759
  38 H :    0.046377
  39 H :    0.051048
Sum of atomic charges:   -0.0000000

--------------------------------
MULLIKEN REDUCED ORBITAL CHARGES
--------------------------------
  0 O s       :     3.774111  s :     3.774111
      pz      :     1.572908  p :     4.705243
      px      :     1.635569
      py      :     1.496766
      dz2     :     0.002159  d :     0.014261
      dxz     :     0.004098
      dyz     :     0.004685
      dx2y2   :     0.001669
      dxy     :     0.001651
  1 C s       :     2.998565  s :     2.998565
      pz      :     0.935845  p :     2.623354
      px      :     0.900709
      py      :     0.786799
      dz2     :     0.005869  d :     0.072871
      dxz     :     0.017320
      dyz     :     0.018573
      dx2y2   :     0.011504
      dxy     :     0.019606
  2 C s       :     3.115615  s :     3.115615
      pz      :     0.867106  p :     2.704008
      px      :     0.922019
      py      :     0.914883
      dz2     :     0.010667  d :     0.078799
      dxz     :     0.021322
      dyz     :     0.020302
      dx2y2   :     0.008361
      dxy     :     0.018147
  3 O s       :     3.762275  s :     3.762275
      pz      :     1.653703  p :     4.745341
      px      :     1.456320
      py      :     1.635318
      dz2     :     0.002069  d :     0.013143
      dxz     :     0.001212
      dyz     :     0.003911
      dx2y2   :     0.001715
      dxy     :     0.004236
  4 C s       :     3.010978  s :     3.010978
      pz      :     0.961082  p :     2.632648
      px      :     0.930709
      py      :     0.740857
      dz2     :     0.009392  d :     0.067979
      dxz     :     0.015169
      dyz     :     0.013943
      dx2y2   :     0.008610
      dxy     :     0.020866
  5 O s       :     3.799517  s :     3.799517
      pz      :     1.719235  p :     4.742130
      px      :     1.430328
      py      :     1.592567
      dz2     :     0.002400  d :     0.018361
      dxz     :     0.003631
      dyz     :     0.002486
      dx2y2   :     0.005736
      dxy     :     0.004109
  6 C s       :     2.971321  s :     2.971321
      pz      :     0.801786  p :     2.381412
      px      :     0.705730
      py      :     0.873897
      dz2     :     0.021122  d :     0.111433
      dxz     :     0.022601
      dyz     :     0.016369
      dx2y2   :     0.027866
      dxy     :     0.023475
  7 N s       :     3.621489  s :     3.621489
      pz      :     1.192759  p :     3.646041
      px      :     1.071659
      py      :     1.381623
      dz2     :     0.008664  d :     0.042611
      dxz     :     0.006371
      dyz     :     0.007574
      dx2y2   :     0.014281
      dxy     :     0.005721
  8 N s       :     3.460203  s :     3.460203
      pz      :     1.500043  p :     3.954113
      px      :     1.148660
      py      :     1.305410
      dz2     :     0.005076  d :     0.046145
      dxz     :     0.010182
      dyz     :     0.006692
      dx2y2   :     0.013041
      dxy     :     0.011154
  9 C s       :     2.953692  s :     2.953692
      pz      :     0.878716  p :     2.641924
      px      :     0.957894
      py      :     0.805313
      dz2     :     0.006705  d :     0.059148
      dxz     :     0.013217
      dyz     :     0.018106
      dx2y2   :     0.007580
      dxy     :     0.013540
 10 C s       :     3.038927  s :     3.038927
      pz      :     1.021937  p :     3.075614
      px      :     1.034805
      py      :     1.018872
      dz2     :     0.005116  d :     0.051407
      dxz     :     0.010493
      dyz     :     0.007870
      dx2y2   :     0.013969
      dxy     :     0.013960
 11 C s       :     3.150350  s :     3.150350
      pz      :     0.967203  p :     2.836674
      px      :     0.932846
      py      :     0.936625
      dz2     :     0.005419  d :     0.043167
      dxz     :     0.008404
      dyz     :     0.005729
      dx2y2   :     0.011266
      dxy     :     0.012350
 12 C s       :     3.128824  s :     3.128824
      pz      :     0.969921  p :     2.861279
      px      :     0.930539
      py      :     0.960819
      dz2     :     0.006280  d :     0.043887
      dxz     :     0.006408
      dyz     :     0.007580
      dx2y2   :     0.012509
      dxy     :     0.011111
 13 C s       :     3.129442  s :     3.129442
      pz      :     0.967238  p :     2.863655
      px      :     0.947806
      py      :     0.948611
      dz2     :     0.004489  d :     0.043906
      dxz     :     0.008933
      dyz     :     0.005670
      dx2y2   :     0.012306
      dxy     :     0.012507
 14 C s       :     3.130620  s :     3.130620
      pz      :     0.964815  p :     2.858970
      px      :     0.943676
      py      :     0.950478
      dz2     :     0.005486  d :     0.043998
      dxz     :     0.008559
      dyz     :     0.005786
      dx2y2   :     0.011666
      dxy     :     0.012501
 15 C s       :     3.157775  s :     3.157775
      pz      :     0.954161  p :     2.820595
      px      :     0.933604
      py      :     0.932829
      dz2     :     0.006098  d :     0.042879
      dxz     :     0.006377
      dyz     :     0.007396
      dx2y2   :     0.012030
      dxy     :     0.010977
 16 C s       :     2.944561  s :     2.944561
      pz      :     0.923285  p :     2.626294
      px      :     0.893825
      py      :     0.809184
      dz2     :     0.011074  d :     0.072469
      dxz     :     0.014054
      dyz     :     0.010924
      dx2y2   :     0.017813
      dxy     :     0.018604
 17 C s       :     3.206433  s :     3.206433
      pz      :     0.999100  p :     2.878212
      px      :     0.917997
      py      :     0.961115
      dz2     :     0.005186  d :     0.041697
      dxz     :     0.007008
      dyz     :     0.007179
      dx2y2   :     0.011007
      dxy     :     0.011317
 18 C s       :     3.112114  s :     3.112114
      pz      :     0.938928  p :     2.826590
      px      :     0.943007
      py      :     0.944656
      dz2     :     0.008066  d :     0.045498
      dxz     :     0.006882
      dyz     :     0.008243
      dx2y2   :     0.011005
      dxy     :     0.011302
 19 C s       :     3.130179  s :     3.130179
      pz      :     1.004256  p :     2.905085
      px      :     0.944381
      py      :     0.956448
      dz2     :     0.005407  d :     0.042583
      dxz     :     0.008803
      dyz     :     0.006155
      dx2y2   :     0.010970
      dxy     :     0.011248
 20 C s       :     3.166648  s :     3.166648
      pz      :     0.911149  p :     2.724789
      px      :     0.897493
      py      :     0.916147
      dz2     :     0.004762  d :     0.044712
      dxz     :     0.008849
      dyz     :     0.007792
      dx2y2   :     0.012397
      dxy     :     0.010913
 21 C s       :     3.096949  s :     3.096949
      pz      :     1.099538  p :     3.140522
      px      :     1.009585
      py      :     1.031399
      dz2     :     0.007572  d :     0.050345
      dxz     :     0.008567
      dyz     :     0.008351
      dx2y2   :     0.009617
      dxy     :     0.016239
 22 H s       :     0.720092  s :     0.720092
      pz      :     0.027029  p :     0.070128
      px      :     0.025260
      py      :     0.017839
 23 H s       :     0.950842  s :     0.950842
      pz      :     0.010406  p :     0.023688
      px      :     0.006894
      py      :     0.006389
 24 H s       :     0.947067  s :     0.947067
      pz      :     0.009854  p :     0.023315
      px      :     0.009160
      py      :     0.004301
 25 H s       :     0.943315  s :     0.943315
      pz      :     0.006276  p :     0.022095
      px      :     0.004695
      py      :     0.011124
 26 H s       :     0.670461  s :     0.670461
      pz      :     0.014537  p :     0.077397
      px      :     0.043650
      py      :     0.019210
 27 H s       :     0.916408  s :     0.916408
      pz      :     0.004185  p :     0.024294
      px      :     0.009147
      py      :     0.010963
 28 H s       :     0.935925  s :     0.935925
      pz      :     0.013928  p :     0.023809
      px      :     0.006337
      py      :     0.003544
 29 H s       :     0.913756  s :     0.913756
      pz      :     0.008385  p :     0.024333
      px      :     0.011741
      py      :     0.004207
 30 H s       :     0.931968  s :     0.931968
      pz      :     0.009162  p :     0.024288
      px      :     0.010035
      py      :     0.005091
 31 H s       :     0.946640  s :     0.946640
      pz      :     0.005565  p :     0.025483
      px      :     0.008739
      py      :     0.011179
 32 H s       :     0.933135  s :     0.933135
      pz      :     0.004076  p :     0.025503
      px      :     0.018550
      py      :     0.002877
 33 H s       :     0.930454  s :     0.930454
      pz      :     0.008230  p :     0.025453
      px      :     0.005002
      py      :     0.012221
 34 H s       :     0.928512  s :     0.928512
      pz      :     0.005721  p :     0.025479
      px      :     0.008298
      py      :     0.011459
 35 H s       :     0.924332  s :     0.924332
      pz      :     0.003768  p :     0.025751
      px      :     0.019118
      py      :     0.002865
 36 H s       :     0.942742  s :     0.942742
      pz      :     0.009462  p :     0.026137
      px      :     0.010396
      py      :     0.006279
 37 H s       :     0.922803  s :     0.922803
      pz      :     0.003616  p :     0.025438
      px      :     0.016311
      py      :     0.005511
 38 H s       :     0.927928  s :     0.927928
      pz      :     0.006669  p :     0.025695
      px      :     0.003575
      py      :     0.015452
 39 H s       :     0.923063  s :     0.923063
      pz      :     0.009188  p :     0.025889
      px      :     0.010005
      py      :     0.006696


                     *******************************
                     * LOEWDIN POPULATION ANALYSIS *
                     *******************************

----------------------
LOEWDIN ATOMIC CHARGES
----------------------
   0 O :   -0.213994
   1 C :    0.121722
   2 C :    0.079364
   3 O :   -0.231220
   4 C :    0.133022
   5 O :   -0.191388
   6 C :    0.121792
   7 N :   -0.138606
   8 N :   -0.010820
   9 C :    0.094703
  10 C :   -0.047518
  11 C :   -0.027473
  12 C :   -0.021906
  13 C :   -0.024530
  14 C :   -0.019086
  15 C :   -0.016135
  16 C :    0.069287
  17 C :   -0.068319
  18 C :    0.015536
  19 C :   -0.063645
  20 C :    0.037738
  21 C :   -0.115955
  22 H :    0.084596
  23 H :    0.010962
  24 H :    0.007353
  25 H :    0.010883
  26 H :    0.043963
  27 H :    0.021038
  28 H :    0.020534
  29 H :    0.032480
  30 H :    0.024179
  31 H :    0.021405
  32 H :    0.027297
  33 H :    0.027617
  34 H :    0.029342
  35 H :    0.030756
  36 H :    0.025925
  37 H :    0.033081
  38 H :    0.029117
  39 H :    0.036901

-------------------------------
LOEWDIN REDUCED ORBITAL CHARGES
-------------------------------
  0 O s       :     3.459923  s :     3.459923
      pz      :     1.609132  p :     4.730208
      px      :     1.629855
      py      :     1.491220
      dz2     :     0.002715  d :     0.023863
      dxz     :     0.007180
      dyz     :     0.007455
      dx2y2   :     0.002977
      dxy     :     0.003536
  1 C s       :     2.840103  s :     2.840103
      pz      :     1.009283  p :     2.886756
      px      :     0.985956
      py      :     0.891518
      dz2     :     0.010613  d :     0.151419
      dxz     :     0.038879
      dyz     :     0.038732
      dx2y2   :     0.023247
      dxy     :     0.039949
  2 C s       :     2.855224  s :     2.855224
      pz      :     0.939214  p :     2.903545
      px      :     0.988074
      py      :     0.976256
      dz2     :     0.020949  d :     0.161866
      dxz     :     0.042709
      dyz     :     0.042467
      dx2y2   :     0.016273
      dxy     :     0.039468
  3 O s       :     3.457889  s :     3.457889
      pz      :     1.639379  p :     4.751614
      px      :     1.463101
      py      :     1.649134
      dz2     :     0.003505  d :     0.021717
      dxz     :     0.002668
      dyz     :     0.005493
      dx2y2   :     0.002932
      dxy     :     0.007119
  4 C s       :     2.847439  s :     2.847439
      pz      :     1.012025  p :     2.874917
      px      :     0.994990
      py      :     0.867902
      dz2     :     0.020509  d :     0.144622
      dxz     :     0.032488
      dyz     :     0.029039
      dx2y2   :     0.018357
      dxy     :     0.044229
  5 O s       :     3.441940  s :     3.441940
      pz      :     1.696350  p :     4.718984
      px      :     1.432363
      py      :     1.590271
      dz2     :     0.003723  d :     0.030464
      dxz     :     0.006394
      dyz     :     0.003911
      dx2y2   :     0.009304
      dxy     :     0.007132
  6 C s       :     2.822383  s :     2.822383
      pz      :     0.909760  p :     2.822624
      px      :     0.916500
      py      :     0.996364
      dz2     :     0.039999  d :     0.233201
      dxz     :     0.045929
      dyz     :     0.036241
      dx2y2   :     0.060109
      dxy     :     0.050923
  7 N s       :     3.255955  s :     3.255955
      pz      :     1.233091  p :     3.801916
      px      :     1.166666
      py      :     1.402159
      dz2     :     0.014680  d :     0.080735
      dxz     :     0.013746
      dyz     :     0.014157
      dx2y2   :     0.026888
      dxy     :     0.011264
  8 N s       :     3.050437  s :     3.050437
      pz      :     1.441139  p :     3.868232
      px      :     1.153194
      py      :     1.273899
      dz2     :     0.009760  d :     0.092152
      dxz     :     0.019082
      dyz     :     0.012679
      dx2y2   :     0.027307
      dxy     :     0.023324
  9 C s       :     2.818919  s :     2.818919
      pz      :     0.969277  p :     2.954359
      px      :     1.038380
      py      :     0.946703
      dz2     :     0.013674  d :     0.132019
      dxz     :     0.030292
      dyz     :     0.040113
      dx2y2   :     0.017253
      dxy     :     0.030688
 10 C s       :     2.853187  s :     2.853187
      pz      :     0.986399  p :     3.082356
      px      :     1.073497
      py      :     1.022460
      dz2     :     0.010185  d :     0.111975
      dxz     :     0.021706
      dyz     :     0.015832
      dx2y2   :     0.032176
      dxy     :     0.032076
 11 C s       :     2.852103  s :     2.852103
      pz      :     1.001579  p :     3.077021
      px      :     1.046346
      py      :     1.029096
      dz2     :     0.010547  d :     0.098350
      dxz     :     0.018833
      dyz     :     0.012116
      dx2y2   :     0.026434
      dxy     :     0.030420
 12 C s       :     2.852751  s :     2.852751
      pz      :     0.992101  p :     3.070787
      px      :     1.040321
      py      :     1.038365
      dz2     :     0.012539  d :     0.098368
      dxz     :     0.013342
      dyz     :     0.016767
      dx2y2   :     0.030113
      dxy     :     0.025608
 13 C s       :     2.852878  s :     2.852878
      pz      :     0.987151  p :     3.073181
      px      :     1.061936
      py      :     1.024094
      dz2     :     0.008467  d :     0.098471
      dxz     :     0.019257
      dyz     :     0.012139
      dx2y2   :     0.028941
      dxy     :     0.029667
 14 C s       :     2.852871  s :     2.852871
      pz      :     0.986244  p :     3.067608
      px      :     1.056920
      py      :     1.024443
      dz2     :     0.010606  d :     0.098607
      dxz     :     0.018769
      dyz     :     0.012234
      dx2y2   :     0.027080
      dxy     :     0.029918
 15 C s       :     2.853398  s :     2.853398
      pz      :     0.992050  p :     3.065297
      px      :     1.042159
      py      :     1.031088
      dz2     :     0.012180  d :     0.097440
      dxz     :     0.013327
      dyz     :     0.016660
      dx2y2   :     0.029827
      dxy     :     0.025447
 16 C s       :     2.817437  s :     2.817437
      pz      :     0.966691  p :     2.952708
      px      :     1.055102
      py      :     0.930915
      dz2     :     0.023079  d :     0.160568
      dxz     :     0.030223
      dyz     :     0.023343
      dx2y2   :     0.039702
      dxy     :     0.044221
 17 C s       :     2.846923  s :     2.846923
      pz      :     1.045935  p :     3.126713
      px      :     1.029284
      py      :     1.051494
      dz2     :     0.009805  d :     0.094684
      dxz     :     0.016178
      dyz     :     0.015442
      dx2y2   :     0.025958
      dxy     :     0.027301
 18 C s       :     2.854022  s :     2.854022
      pz      :     0.973176  p :     3.029918
      px      :     1.031585
      py      :     1.025156
      dz2     :     0.016341  d :     0.100525
      dxz     :     0.014433
      dyz     :     0.018242
      dx2y2   :     0.025539
      dxy     :     0.025969
 19 C s       :     2.848828  s :     2.848828
      pz      :     1.033972  p :     3.118263
      px      :     1.048362
      py      :     1.035929
      dz2     :     0.010935  d :     0.096554
      dxz     :     0.019714
      dyz     :     0.013375
      dx2y2   :     0.026409
      dxy     :     0.026123
 20 C s       :     2.854218  s :     2.854218
      pz      :     0.958312  p :     3.009009
      px      :     1.039468
      py      :     1.011229
      dz2     :     0.009338  d :     0.099035
      dxz     :     0.018842
      dyz     :     0.016834
      dx2y2   :     0.027714
      dxy     :     0.026308
 21 C s       :     2.825156  s :     2.825156
      pz      :     1.070216  p :     3.171632
      px      :     1.035909
      py      :     1.065507
      dz2     :     0.016085  d :     0.119167
      dxz     :     0.020073
      dyz     :     0.019080
      dx2y2   :     0.023587
      dxy     :     0.040342
 22 H s       :     0.733601  s :     0.733601
      pz      :     0.072573  p :     0.181803
      px      :     0.063080
      py      :     0.046150
 23 H s       :     0.925693  s :     0.925693
      pz      :     0.026316  p :     0.063345
      px      :     0.019504
      py      :     0.017525
 24 H s       :     0.927733  s :     0.927733
      pz      :     0.025310  p :     0.064914
      px      :     0.026027
      py      :     0.013577
 25 H s       :     0.923023  s :     0.923023
      pz      :     0.019042  p :     0.066094
      px      :     0.017768
      py      :     0.029284
 26 H s       :     0.731708  s :     0.731708
      pz      :     0.044054  p :     0.224328
      px      :     0.118890
      py      :     0.061384
 27 H s       :     0.911255  s :     0.911255
      pz      :     0.014587  p :     0.067707
      px      :     0.024896
      py      :     0.028223
 28 H s       :     0.914961  s :     0.914961
      pz      :     0.035302  p :     0.064505
      px      :     0.018611
      py      :     0.010592
 29 H s       :     0.902177  s :     0.902177
      pz      :     0.022566  p :     0.065342
      px      :     0.029230
      py      :     0.013546
 30 H s       :     0.911176  s :     0.911176
      pz      :     0.023594  p :     0.064645
      px      :     0.025721
      py      :     0.015329
 31 H s       :     0.910397  s :     0.910397
      pz      :     0.016989  p :     0.068197
      px      :     0.022993
      py      :     0.028214
 32 H s       :     0.904524  s :     0.904524
      pz      :     0.013830  p :     0.068179
      px      :     0.043022
      py      :     0.011327
 33 H s       :     0.904171  s :     0.904171
      pz      :     0.022314  p :     0.068212
      px      :     0.015593
      py      :     0.030305
 34 H s       :     0.902539  s :     0.902539
      pz      :     0.017126  p :     0.068119
      px      :     0.022282
      py      :     0.028711
 35 H s       :     0.900321  s :     0.900321
      pz      :     0.013144  p :     0.068924
      px      :     0.044730
      py      :     0.011050
 36 H s       :     0.903088  s :     0.903088
      pz      :     0.025882  p :     0.070986
      px      :     0.026618
      py      :     0.018486
 37 H s       :     0.899222  s :     0.899222
      pz      :     0.012609  p :     0.067697
      px      :     0.038730
      py      :     0.016358
 38 H s       :     0.901735  s :     0.901735
      pz      :     0.019655  p :     0.069148
      px      :     0.012523
      py      :     0.036970
 39 H s       :     0.894195  s :     0.894195
      pz      :     0.024148  p :     0.068904
      px      :     0.025998
      py      :     0.018758


                      *****************************
                      * MAYER POPULATION ANALYSIS *
                      *****************************

  NA   - Mulliken gross atomic population
  ZA   - Total nuclear charge
  QA   - Mulliken gross atomic charge
  VA   - Mayer's total valence
  BVA  - Mayer's bonded valence
  FA   - Mayer's free valence

  ATOM       NA         ZA         QA         VA         BVA        FA
  0 O      8.4936     8.0000    -0.4936     1.9053     1.9053     0.0000
  1 C      5.6948     6.0000     0.3052     3.8332     3.8332    -0.0000
  2 C      5.8984     6.0000     0.1016     3.9170     3.9170    -0.0000
  3 O      8.5208     8.0000    -0.5208     1.8907     1.8907     0.0000
  4 C      5.7116     6.0000     0.2884     3.7221     3.7221    -0.0000
  5 O      8.5600     8.0000    -0.5600     1.9048     1.9048    -0.0000
  6 C      5.4642     6.0000     0.5358     3.8535     3.8535     0.0000
  7 N      7.3101     7.0000    -0.3101     2.8123     2.8123    -0.0000
  8 N      7.4605     7.0000    -0.4605     3.0998     3.0998    -0.0000
  9 C      5.6548     6.0000     0.3452     3.8001     3.8001     0.0000
 10 C      6.1659     6.0000    -0.1659     3.8324     3.8324    -0.0000
 11 C      6.0302     6.0000    -0.0302     3.9138     3.9138    -0.0000
 12 C      6.0340     6.0000    -0.0340     3.8939     3.8939    -0.0000
 13 C      6.0370     6.0000    -0.0370     3.8661     3.8661    -0.0000
 14 C      6.0336     6.0000    -0.0336     3.8867     3.8867    -0.0000
 15 C      6.0212     6.0000    -0.0212     3.9117     3.9117    -0.0000
 16 C      5.6433     6.0000     0.3567     3.6937     3.6937     0.0000
 17 C      6.1263     6.0000    -0.1263     3.9209     3.9209     0.0000
 18 C      5.9842     6.0000     0.0158     3.8637     3.8637     0.0000
 19 C      6.0778     6.0000    -0.0778     3.8592     3.8592    -0.0000
 20 C      5.9362     6.0000     0.0638     3.8861     3.8861     0.0000
 21 C      6.2878     6.0000    -0.2878     3.9053     3.9053     0.0000
 22 H      0.7902     1.0000     0.2098     1.0032     1.0032    -0.0000
 23 H      0.9745     1.0000     0.0255     0.9803     0.9803    -0.0000
 24 H      0.9704     1.0000     0.0296     0.9852     0.9852    -0.0000
 25 H      0.9654     1.0000     0.0346     0.9785     0.9785    -0.0000
 26 H      0.7479     1.0000     0.2521     1.0077     1.0077    -0.0000
 27 H      0.9407     1.0000     0.0593     1.0101     1.0101    -0.0000
 28 H      0.9597     1.0000     0.0403     0.9949     0.9949    -0.0000
 29 H      0.9381     1.0000     0.0619     0.9934     0.9934    -0.0000
 30 H      0.9563     1.0000     0.0437     0.9920     0.9920     0.0000
 31 H      0.9721     1.0000     0.0279     0.9949     0.9949    -0.0000
 32 H      0.9586     1.0000     0.0414     0.9856     0.9856    -0.0000
 33 H      0.9559     1.0000     0.0441     0.9855     0.9855    -0.0000
 34 H      0.9540     1.0000     0.0460     0.9856     0.9856     0.0000
 35 H      0.9501     1.0000     0.0499     1.0056     1.0056     0.0000
 36 H      0.9689     1.0000     0.0311     0.9975     0.9975     0.0000
 37 H      0.9482     1.0000     0.0518     0.9856     0.9856    -0.0000
 38 H      0.9536     1.0000     0.0464     0.9873     0.9873     0.0000
 39 H      0.9490     1.0000     0.0510     0.9939     0.9939    -0.0000

  Mayer bond orders larger than 0.100000
B(  0-O ,  1-C ) :   0.9052 B(  0-O , 22-H ) :   0.9586 B(  1-C ,  2-C ) :   1.0254 
B(  1-C , 23-H ) :   0.9713 B(  1-C , 24-H ) :   0.9815 B(  2-C ,  3-O ) :   0.9349 
B(  2-C ,  4-C ) :   0.9867 B(  2-C , 25-H ) :   0.9605 B(  3-O , 26-H ) :   0.9150 
B(  4-C ,  5-O ) :   0.8174 B(  4-C , 27-H ) :   0.9665 B(  4-C , 28-H ) :   0.9784 
B(  5-O ,  6-C ) :   1.0820 B(  6-C ,  7-N ) :   1.5593 B(  6-C , 21-C ) :   1.2156 
B(  7-N ,  8-N ) :   1.0740 B(  8-N ,  9-C ) :   0.8739 B(  8-N , 16-C ) :   1.0664 
B(  9-C , 10-C ) :   0.9957 B(  9-C , 29-H ) :   0.9785 B(  9-C , 30-H ) :   0.9837 
B( 10-C , 11-C ) :   1.4190 B( 10-C , 15-C ) :   1.4132 B( 11-C , 12-C ) :   1.4269 
B( 11-C , 31-H ) :   1.0015 B( 12-C , 13-C ) :   1.4187 B( 12-C , 32-H ) :   0.9993 
B( 13-C , 14-C ) :   1.4092 B( 13-C , 33-H ) :   0.9998 B( 14-C , 15-C ) :   1.4319 
B( 14-C , 34-H ) :   0.9999 B( 15-C , 35-H ) :   0.9987 B( 16-C , 17-C ) :   1.2761 
B( 16-C , 21-C ) :   1.3356 B( 17-C , 18-C ) :   1.5132 B( 17-C , 36-H ) :   1.0163 
B( 18-C , 19-C ) :   1.3106 B( 18-C , 37-H ) :   0.9949 B( 19-C , 20-C ) :   1.5203 
B( 19-C , 38-H ) :   1.0003 B( 20-C , 21-C ) :   1.2658 B( 20-C , 39-H ) :   1.0077 


-------
TIMINGS
-------

Total SCF time: 0 days 0 hours 0 min 22 sec 

Total time                  ....      22.918 sec
Sum of individual times     ....      22.585 sec  ( 98.5%)

Fock matrix formation       ....      21.632 sec  ( 94.4%)
Diagonalization             ....       0.230 sec  (  1.0%)
Density matrix formation    ....       0.029 sec  (  0.1%)
Population analysis         ....       0.030 sec  (  0.1%)
Initial guess               ....       0.140 sec  (  0.6%)
Orbital Transformation      ....       0.000 sec  (  0.0%)
Orbital Orthonormalization  ....       0.000 sec  (  0.0%)
DIIS solution               ....       0.106 sec  (  0.5%)
SOSCF solution              ....       0.248 sec  (  1.1%)

Maximum memory used throughout the entire SCF-calculation: 240.5 MB

-------------------------   --------------------
FINAL SINGLE POINT ENERGY      -986.942861366174
-------------------------   --------------------


                            ***************************************
                            *     ORCA property calculations      *
                            ***************************************

                                    ---------------------
                                    Active property flags
                                    ---------------------
   (+) Dipole Moment


------------------------------------------------------------------------------
                       ORCA ELECTRIC PROPERTIES CALCULATION
------------------------------------------------------------------------------

Dipole Moment Calculation                       ... on
Quadrupole Moment Calculation                   ... off
Polarizability Calculation                      ... off
GBWName                                         ... ./ZINC000000000073/ZINC000000000073.gbw
Electron density                                ... ./ZINC000000000073/ZINC000000000073.scfp
The origin for moment calculation is the CENTER OF MASS  = ( 0.063194, -0.210017  0.110129)

-------------
DIPOLE MOMENT
-------------
                                X             Y             Z
Electronic contribution:     -3.38674      -5.67438       1.56596
Nuclear contribution   :      1.90310       4.86068      -1.23869
                        -----------------------------------------
Total Dipole Moment    :     -1.48364      -0.81370       0.32727
                        -----------------------------------------
Magnitude (a.u.)       :      1.72349
Magnitude (Debye)      :      4.38076



--------------------
Rotational spectrum 
--------------------
 
Rotational constants in cm-1:     0.009942     0.007772     0.004795 
Rotational constants in MHz :   298.058407   232.987840   143.748459 

 Dipole components along the rotational axes: 
x,y,z [a.u.] :     1.561487    -0.727186     0.058073 
x,y,z [Debye]:     3.968985    -1.848359     0.147609 

 

Timings for individual modules:

Sum of individual times         ...       23.565 sec (=   0.393 min)
GTO integral calculation        ...        0.421 sec (=   0.007 min)   1.8 %
SCF iterations                  ...       23.144 sec (=   0.386 min)  98.2 %
                             ****ORCA TERMINATED NORMALLY****
TOTAL RUN TIME: 0 days 0 hours 0 minutes 23 seconds 938 msec
