
                                 *****************
                                 * O   R   C   A *
                                 *****************

                                            #,                                       
                                            ###                                      
                                            ####                                     
                                            #####                                    
                                            ######                                   
                                           ########,                                 
                                     ,,################,,,,,                         
                               ,,#################################,,                 
                          ,,##########################################,,             
                       ,#########################################, ''#####,          
                    ,#############################################,,   '####,        
                  ,##################################################,,,,####,       
                ,###########''''           ''''###############################       
              ,#####''   ,,,,##########,,,,          '''####'''          '####       
            ,##' ,,,,###########################,,,                        '##       
           ' ,,###''''                  '''############,,,                           
         ,,##''                                '''############,,,,        ,,,,,,###''
      ,#''                                            '''#######################'''  
     '                                                          ''''####''''         
             ,#######,   #######,   ,#######,      ##                                
            ,#'     '#,  ##    ##  ,#'     '#,    #''#        ######   ,####,        
            ##       ##  ##   ,#'  ##            #'  '#       #        #'  '#        
            ##       ##  #######   ##           ,######,      #####,   #    #        
            '#,     ,#'  ##    ##  '#,     ,#' ,#      #,         ##   #,  ,#        
             '#######'   ##     ##  '#######'  #'      '#     #####' # '####'        



                  #######################################################
                  #                        -***-                        #
                  #          Department of theory and spectroscopy      #
                  #    Directorship and core code : Frank Neese         #
                  #        Max Planck Institute fuer Kohlenforschung    #
                  #                Kaiser Wilhelm Platz 1               #
                  #                 D-45470 Muelheim/Ruhr               #
                  #                      Germany                        #
                  #                                                     #
                  #                  All rights reserved                #
                  #                        -***-                        #
                  #######################################################


                         Program Version 5.0.3 -  RELEASE  -


 With contributions from (in alphabetic order):
   Daniel Aravena         : Magnetic Suceptibility
   Michael Atanasov       : Ab Initio Ligand Field Theory (pilot matlab implementation)
   Alexander A. Auer      : GIAO ZORA, VPT2 properties, NMR spectrum
   Ute Becker             : Parallelization
   Giovanni Bistoni       : ED, misc. LED, open-shell LED, HFLD
   Martin Brehm           : Molecular dynamics
   Dmytro Bykov           : SCF Hessian
   Vijay G. Chilkuri      : MRCI spin determinant printing, contributions to CSF-ICE
   Dipayan Datta          : RHF DLPNO-CCSD density
   Achintya Kumar Dutta   : EOM-CC, STEOM-CC
   Dmitry Ganyushin       : Spin-Orbit,Spin-Spin,Magnetic field MRCI
   Miquel Garcia          : C-PCM and meta-GGA Hessian, CC/C-PCM, Gaussian charge scheme
   Yang Guo               : DLPNO-NEVPT2, F12-NEVPT2, CIM, IAO-localization
   Andreas Hansen         : Spin unrestricted coupled pair/coupled cluster methods
   Benjamin Helmich-Paris : MC-RPA, TRAH-SCF, COSX integrals
   Lee Huntington         : MR-EOM, pCC
   Robert Izsak           : Overlap fitted RIJCOSX, COSX-SCS-MP3, EOM
   Marcus Kettner         : VPT2
   Christian Kollmar      : KDIIS, OOCD, Brueckner-CCSD(T), CCSD density, CASPT2, CASPT2-K
   Simone Kossmann        : Meta GGA functionals, TD-DFT gradient, OOMP2, MP2 Hessian
   Martin Krupicka        : Initial AUTO-CI
   Lucas Lang             : DCDCAS
   Marvin Lechner         : AUTO-CI (C++ implementation), FIC-MRCC
   Dagmar Lenk            : GEPOL surface, SMD
   Dimitrios Liakos       : Extrapolation schemes; Compound Job, initial MDCI parallelization
   Dimitrios Manganas     : Further ROCIS development; embedding schemes
   Dimitrios Pantazis     : SARC Basis sets
   Anastasios Papadopoulos: AUTO-CI, single reference methods and gradients
   Taras Petrenko         : DFT Hessian,TD-DFT gradient, ASA, ECA, R-Raman, ABS, FL, XAS/XES, NRVS
   Peter Pinski           : DLPNO-MP2, DLPNO-MP2 Gradient
   Christoph Reimann      : Effective Core Potentials
   Marius Retegan         : Local ZFS, SOC
   Christoph Riplinger    : Optimizer, TS searches, QM/MM, DLPNO-CCSD(T), (RO)-DLPNO pert. Triples
   Tobias Risthaus        : Range-separated hybrids, TD-DFT gradient, RPA, STAB
   Michael Roemelt        : Original ROCIS implementation
   Masaaki Saitow         : Open-shell DLPNO-CCSD energy and density
   Barbara Sandhoefer     : DKH picture change effects
   Avijit Sen             : IP-ROCIS
   Kantharuban Sivalingam : CASSCF convergence, NEVPT2, FIC-MRCI
   Bernardo de Souza      : ESD, SOC TD-DFT
   Georgi Stoychev        : AutoAux, RI-MP2 NMR, DLPNO-MP2 response
   Willem Van den Heuvel  : Paramagnetic NMR
   Boris Wezisla          : Elementary symmetry handling
   Frank Wennmohs         : Technical directorship


 We gratefully acknowledge several colleagues who have allowed us to
 interface, adapt or use parts of their codes:
   Stefan Grimme, W. Hujo, H. Kruse, P. Pracht,  : VdW corrections, initial TS optimization,
                  C. Bannwarth, S. Ehlert          DFT functionals, gCP, sTDA/sTD-DF
   Ed Valeev, F. Pavosevic, A. Kumar             : LibInt (2-el integral package), F12 methods
   Garnet Chan, S. Sharma, J. Yang, R. Olivares  : DMRG
   Ulf Ekstrom                                   : XCFun DFT Library
   Mihaly Kallay                                 : mrcc  (arbitrary order and MRCC methods)
   Jiri Pittner, Ondrej Demel                    : Mk-CCSD
   Frank Weinhold                                : gennbo (NPA and NBO analysis)
   Christopher J. Cramer and Donald G. Truhlar   : smd solvation model
   Lars Goerigk                                  : TD-DFT with DH, B97 family of functionals
   V. Asgeirsson, H. Jonsson                     : NEB implementation
   FAccTs GmbH                                   : IRC, NEB, NEB-TS, DLPNO-Multilevel, CI-OPT
                                                   MM, QMMM, 2- and 3-layer-ONIOM, Crystal-QMMM,
                                                   LR-CPCM, SF, NACMEs, symmetry and pop. for TD-DFT,
                                                   nearIR, NL-DFT gradient (VV10), updates on ESD,
                                                   ML-optimized integration grids
   S Lehtola, MJT Oliveira, MAL Marques          : LibXC Library
   Liviu Ungur et al                             : ANISO software


 Your calculation uses the libint2 library for the computation of 2-el integrals
 For citations please refer to: http://libint.valeyev.net

 Your ORCA version has been built with support for libXC version: 5.1.0
 For citations please refer to: https://tddft.org/programs/libxc/

 This ORCA versions uses:
   CBLAS   interface :  Fast vector & matrix operations
   LAPACKE interface :  Fast linear algebra routines
   SCALAPACK package :  Parallel linear algebra routines
   Shared memory     :  Shared parallel matrices
   BLAS/LAPACK       :  OpenBLAS 0.3.15  USE64BITINT DYNAMIC_ARCH NO_AFFINITY Zen SINGLE_THREADED
        Core in use  :  Zen
   Copyright (c) 2011-2014, The OpenBLAS Project


================================================================================

----- Orbital basis set information -----
Your calculation utilizes the basis: def2-SVP
   F. Weigend and R. Ahlrichs, Phys. Chem. Chem. Phys. 7, 3297 (2005).

================================================================================
                                        WARNINGS
                       Please study these warnings very carefully!
================================================================================


INFO   : the flag for use of the SHARK integral package has been found!

================================================================================
                                       INPUT FILE
================================================================================
NAME = ./ZINC000000000150/ZINC000000000150.inp
|  1> !RHF def2-SVP TightSCF PAL16 
|  2> *xyz 0 1
|  3> C 4.873421182093805 3.478323126884039 -0.9128672978657594
|  4> O 4.287798941539245 2.2768157664381454 -0.4114439320345818
|  5> C 4.876757690886008 1.146234305397294 -0.8689802017390283
|  6> O 5.826126943113283 1.0891265712382188 -1.6368598444255456
|  7> C 4.237764958975594 -0.07076717533811515 -0.32741775790176586
|  8> C 3.1975280110705206 -0.0682432528009623 0.5208426431638296
|  9> C 2.5618336525648444 -1.2954077160443576 1.0379964091313396
| 10> C 3.3549336507046688 -2.3653977906924686 1.4844014541961899
| 11> C 2.767760722248273 -3.5207092752416 1.9982477849343576
| 12> C 1.3828570919620375 -3.615299161460966 2.079495537032245
| 13> C 0.5792524395703016 -2.553806430501947 1.6550886913857161
| 14> C 1.15587882424674 -1.3866459037072507 1.1411263891595635
| 15> O 0.45077552988648395 -0.2972121628995094 0.695875624535185
| 16> C -0.9771282628197011 -0.2771135478569205 0.8145418337698219
| 17> C -1.6172710569767648 -0.9132070946861902 -0.42563475154111285
| 18> O -1.2477214169227553 -0.17475320226830116 -1.5973758562175067
| 19> C -3.1534996291555757 -1.0399952582769214 -0.31707827085000356
| 20> N -3.9314564078850847 0.1482248219992358 0.0637719603547838
| 21> C -3.9098500913525065 1.2522344144992892 -0.9056638187596457
| 22> C -4.695277341942666 2.4204438907562777 -0.2990707563006448
| 23> C -4.526293422543159 0.8738279443204391 -2.253507921584296
| 24> H 5.921023421262985 3.552355423049175 -0.6044710327694869
| 25> H 4.327071397229456 4.32467384825801 -0.4874509391663898
| 26> H 4.785506506981723 3.522397417862788 -2.0030095095243605
| 27> H 4.680270494065182 -0.9921869982105195 -0.6899205512812525
| 28> H 2.744750343641216 0.863838974483023 0.8518833446263432
| 29> H 4.44037880060767 -2.3054690437537055 1.4471454367298209
| 30> H 3.392118369982882 -4.343274318484279 2.3381335615679104
| 31> H 0.9244008641905067 -4.51717648118639 2.478527189207606
| 32> H -0.49407372810893996 -2.6811676363376775 1.7388890687548992
| 33> H -1.2434208115527723 0.7854267144534822 0.8540426111079261
| 34> H -1.3216882322760097 -0.7182220530582066 1.7557762774592536
| 35> H -1.2095215112983984 -1.919067078650367 -0.5762511620704944
| 36> H -0.28063974104151285 -0.05218454862606867 -1.5456023893422948
| 37> H -3.54929766746196 -1.4524210645372622 -1.2517221053002956
| 38> H -3.364519111759298 -1.7973285112282258 0.4484519014508818
| 39> H -3.625508576019351 0.4930025783373694 0.9713936988010634
| 40> H -2.884958971744812 1.6044660780578754 -1.0605468421072808
| 41> H -4.687780992417367 3.2835965414024098 -0.9737460789930723
| 42> H -5.7405421617058385 2.148973140012272 -0.11189127377955023
| 43> H -4.25286191766365 2.7427250425739347 0.6504031610649195
| 44> H -3.920662033095748 0.1318090470755225 -2.7826295522918114
| 45> H -4.598015658337638 1.7518354831965643 -2.905095720149914
| 46> H -5.536221092742693 0.46672457555269237 -2.131092882798964
| 47> *
| 48> 
| 49>                          ****END OF INPUT****
================================================================================

                       ****************************
                       * Single Point Calculation *
                       ****************************

---------------------------------
CARTESIAN COORDINATES (ANGSTROEM)
---------------------------------
  C      4.873421    3.478323   -0.912867
  O      4.287799    2.276816   -0.411444
  C      4.876758    1.146234   -0.868980
  O      5.826127    1.089127   -1.636860
  C      4.237765   -0.070767   -0.327418
  C      3.197528   -0.068243    0.520843
  C      2.561834   -1.295408    1.037996
  C      3.354934   -2.365398    1.484401
  C      2.767761   -3.520709    1.998248
  C      1.382857   -3.615299    2.079496
  C      0.579252   -2.553806    1.655089
  C      1.155879   -1.386646    1.141126
  O      0.450776   -0.297212    0.695876
  C     -0.977128   -0.277114    0.814542
  C     -1.617271   -0.913207   -0.425635
  O     -1.247721   -0.174753   -1.597376
  C     -3.153500   -1.039995   -0.317078
  N     -3.931456    0.148225    0.063772
  C     -3.909850    1.252234   -0.905664
  C     -4.695277    2.420444   -0.299071
  C     -4.526293    0.873828   -2.253508
  H      5.921023    3.552355   -0.604471
  H      4.327071    4.324674   -0.487451
  H      4.785507    3.522397   -2.003010
  H      4.680270   -0.992187   -0.689921
  H      2.744750    0.863839    0.851883
  H      4.440379   -2.305469    1.447145
  H      3.392118   -4.343274    2.338134
  H      0.924401   -4.517176    2.478527
  H     -0.494074   -2.681168    1.738889
  H     -1.243421    0.785427    0.854043
  H     -1.321688   -0.718222    1.755776
  H     -1.209522   -1.919067   -0.576251
  H     -0.280640   -0.052185   -1.545602
  H     -3.549298   -1.452421   -1.251722
  H     -3.364519   -1.797329    0.448452
  H     -3.625509    0.493003    0.971394
  H     -2.884959    1.604466   -1.060547
  H     -4.687781    3.283597   -0.973746
  H     -5.740542    2.148973   -0.111891
  H     -4.252862    2.742725    0.650403
  H     -3.920662    0.131809   -2.782630
  H     -4.598016    1.751835   -2.905096
  H     -5.536221    0.466725   -2.131093

----------------------------
CARTESIAN COORDINATES (A.U.)
----------------------------
  NO LB      ZA    FRAG     MASS         X           Y           Z
   0 C     6.0000    0    12.011    9.209431    6.573078   -1.725069
   1 O     8.0000    0    15.999    8.102766    4.302558   -0.777516
   2 C     6.0000    0    12.011    9.215736    2.166069   -1.642135
   3 O     8.0000    0    15.999   11.009784    2.058151   -3.093217
   4 C     6.0000    0    12.011    8.008215   -0.133731   -0.618730
   5 C     6.0000    0    12.011    6.042452   -0.128961    0.984250
   6 C     6.0000    0    12.011    4.841164   -2.447966    1.961529
   7 C     6.0000    0    12.011    6.339906   -4.469954    2.805112
   8 C     6.0000    0    12.011    5.230310   -6.653176    3.776141
   9 C     6.0000    0    12.011    2.613221   -6.831925    3.929677
  10 C     6.0000    0    12.011    1.094628   -4.825995    3.127664
  11 C     6.0000    0    12.011    2.184294   -2.620381    2.156416
  12 O     8.0000    0    15.999    0.851842   -0.561650    1.315014
  13 C     6.0000    0    12.011   -1.846505   -0.523669    1.539261
  14 C     6.0000    0    12.011   -3.056199   -1.725711   -0.804333
  15 O     8.0000    0    15.999   -2.357852   -0.330236   -3.018603
  16 C     6.0000    0    12.011   -5.959251   -1.965306   -0.599191
  17 N     7.0000    0    14.007   -7.429376    0.280104    0.120512
  18 C     6.0000    0    12.011   -7.388546    2.366380   -1.711457
  19 C     6.0000    0    12.011   -8.872788    4.573976   -0.565162
  20 C     6.0000    0    12.011   -8.553455    1.651296   -4.258513
  21 H     1.0000    0     1.008   11.189113    6.712979   -1.142285
  22 H     1.0000    0     1.008    8.176980    8.172449   -0.921149
  23 H     1.0000    0     1.008    9.043297    6.656366   -3.785139
  24 H     1.0000    0     1.008    8.844429   -1.874962   -1.303761
  25 H     1.0000    0     1.008    5.186826    1.632419    1.609826
  26 H     1.0000    0     1.008    8.391100   -4.356705    2.734709
  27 H     1.0000    0     1.008    6.410175   -8.207599    4.418432
  28 H     1.0000    0     1.008    1.746864   -8.536226    4.683738
  29 H     1.0000    0     1.008   -0.933664   -5.066673    3.286024
  30 H     1.0000    0     1.008   -2.349725    1.484241    1.613907
  31 H     1.0000    0     1.008   -2.497629   -1.357243    3.317936
  32 H     1.0000    0     1.008   -2.285664   -3.626511   -1.088957
  33 H     1.0000    0     1.008   -0.530332   -0.098615   -2.920765
  34 H     1.0000    0     1.008   -6.707201   -2.744678   -2.365412
  35 H     1.0000    0     1.008   -6.358020   -3.396459    0.847451
  36 H     1.0000    0     1.008   -6.851218    0.931640    1.835668
  37 H     1.0000    0     1.008   -5.451782    3.032001   -2.004143
  38 H     1.0000    0     1.008   -8.858622    6.205098   -1.840113
  39 H     1.0000    0     1.008  -10.848053    4.060971   -0.211444
  40 H     1.0000    0     1.008   -8.036744    5.182999    1.229084
  41 H     1.0000    0     1.008   -7.408978    0.249083   -5.258408
  42 H     1.0000    0     1.008   -8.688990    3.310489   -5.489835
  43 H     1.0000    0     1.008  -10.461942    0.881982   -4.027182

--------------------------------
INTERNAL COORDINATES (ANGSTROEM)
--------------------------------
 C      0   0   0     0.000000000000     0.00000000     0.00000000
 O      1   0   0     1.427584931848     0.00000000     0.00000000
 C      2   1   0     1.354409940371   113.92332891     0.00000000
 O      3   2   1     1.222375726210   126.08136401     0.22132410
 C      3   2   1     1.477394394237   112.06819156   180.11932390
 C      5   3   2     1.342253696582   124.42336381   359.86780932
 C      6   5   3     1.475631375018   123.62673207   179.20898527
 C      7   6   5     1.404693500787   120.10665476    44.25338139
 C      8   7   6     1.394114315921   120.70240493   178.80944608
 C      9   8   7     1.390505846437   119.82764575   359.57799309
 C     10   9   8     1.397379127458   120.22137894   359.63606978
 C     11  10   9     1.399613850647   120.53546291     0.16490214
 O     12  11  10     1.371963838710   124.72407705   179.72901443
 C     13  12  11     1.432967154113   119.76102006     3.71410768
 C     14  13  12     1.533765223228   110.06678325   271.59696211
 O     15  14  13     1.433477695704   109.85873527   299.41704098
 C     15  14  13     1.545269547330   113.08830385   174.98587646
 N     17  15  14     1.470418514353   118.54632610    50.76171764
 C     18  17  15     1.469390942899   115.37129537    65.64056772
 C     19  18  17     1.532828917332   107.69759726   183.47923000
 C     19  18  17     1.529665833691   112.92601023    62.68867308
 H      1   2   3     1.094559038478   110.52297217   298.36564315
 H      1   2   3     1.093520328682   108.04724274   179.86911907
 H      1   2   3     1.094569127495   110.53378235    61.37108656
 H      5   3   2     1.084543182070   113.63181119   179.10176806
 H      6   5   3     1.087829417035   121.09746705     1.07332769
 H      8   7   6     1.087736474977   120.70152734   359.52155713
 H      9   8   7     1.087178947463   120.02340505   179.83422423
 H     10   9   8     1.087561985385   119.84769370   179.88298634
 H     11  10   9     1.084099830377   117.17085367   179.89061917
 H     14  13  12     1.096113060752   104.99084642   154.12813796
 H     14  13  12     1.095089294944   112.27524642    38.89218995
 H     15  14  13     1.095764254966   109.66584080    54.74690763
 H     16  15  14     0.976191853353   106.06466737    48.19865114
 H     17  15  14     1.095586705867   109.27533594   177.13709387
 H     17  15  14     1.097323709198   107.26643011   290.94364883
 H     18  17  15     1.017965125723   110.21922241   301.37014960
 H     19  18  17     1.094740929529   110.41697128   299.84704769
 H     20  19  18     1.095570848747   110.68554199   178.50529042
 H     20  19  18     1.096043370775   111.56039181   298.62729053
 H     20  19  18     1.095945832701   111.10706794    59.26843429
 H     21  19  18     1.094235406042   111.76387164   292.45894163
 H     21  19  18     1.095722581984   110.61788365   173.36806491
 H     21  19  18     1.095752021955   111.40127756    53.62597669

---------------------------
INTERNAL COORDINATES (A.U.)
---------------------------
 C      0   0   0     0.000000000000     0.00000000     0.00000000
 O      1   0   0     2.697744554105     0.00000000     0.00000000
 C      2   1   0     2.559463860362   113.92332891     0.00000000
 O      3   2   1     2.309955355290   126.08136401     0.22132410
 C      3   2   1     2.791870796898   112.06819156   180.11932390
 C      5   3   2     2.536491888783   124.42336381   359.86780932
 C      6   5   3     2.788539173406   123.62673207   179.20898527
 C      7   6   5     2.654486018587   120.10665476    44.25338139
 C      8   7   6     2.634494256470   120.70240493   178.80944608
 C      9   8   7     2.627675237383   119.82764575   359.57799309
 C     10   9   8     2.640663856154   120.22137894   359.63606978
 C     11  10   9     2.644886870965   120.53546291     0.16490214
 O     12  11  10     2.592635920804   124.72407705   179.72901443
 C     13  12  11     2.707915480177   119.76102006     3.71410768
 C     14  13  12     2.898396225633   110.06678325   271.59696211
 O     15  14  13     2.708880263964   109.85873527   299.41704098
 C     15  14  13     2.920136247542   113.08830385   174.98587646
 N     17  15  14     2.778688294374   118.54632610    50.76171764
 C     18  17  15     2.776746465743   115.37129537    65.64056772
 C     19  18  17     2.896626863913   107.69759726   183.47923000
 C     19  18  17     2.890649502092   112.92601023    62.68867308
 H      1   2   3     2.068416820131   110.52297217   298.36564315
 H      1   2   3     2.066453943084   108.04724274   179.86911907
 H      1   2   3     2.068435885611   110.53378235    61.37108656
 H      5   3   2     2.049489594524   113.63181119   179.10176806
 H      6   5   3     2.055699678619   121.09746705     1.07332769
 H      8   7   6     2.055524043583   120.70152734   359.52155713
 H      9   8   7     2.054470469270   120.02340505   179.83422423
 H     10   9   8     2.055194306042   119.84769370   179.88298634
 H     11  10   9     2.048651781244   117.17085367   179.89061917
 H     14  13  12     2.071353496636   104.99084642   154.12813796
 H     14  13  12     2.069418859632   112.27524642    38.89218995
 H     15  14  13     2.070694349227   109.66584080    54.74690763
 H     16  15  14     1.844735257003   106.06466737    48.19865114
 H     17  15  14     2.070358830054   109.27533594   177.13709387
 H     17  15  14     2.073641290642   107.26643011   290.94364883
 H     18  17  15     1.923675301500   110.21922241   301.37014960
 H     19  18  17     2.068760544404   110.41697128   299.84704769
 H     20  19  18     2.070328864439   110.68554199   178.50529042
 H     20  19  18     2.071221801666   111.56039181   298.62729053
 H     20  19  18     2.071037481417   111.10706794    59.26843429
 H     21  19  18     2.067805243459   111.76387164   292.45894163
 H     21  19  18     2.070615598703   110.61788365   173.36806491
 H     21  19  18     2.070671232185   111.40127756    53.62597669

---------------------
BASIS SET INFORMATION
---------------------
There are 4 groups of distinct atoms

 Group   1 Type C   : 7s4p1d contracted to 3s2p1d pattern {511/31/1}
 Group   2 Type O   : 7s4p1d contracted to 3s2p1d pattern {511/31/1}
 Group   3 Type N   : 7s4p1d contracted to 3s2p1d pattern {511/31/1}
 Group   4 Type H   : 4s1p contracted to 2s1p pattern {31/1}

Atom   0C    basis set group =>   1
Atom   1O    basis set group =>   2
Atom   2C    basis set group =>   1
Atom   3O    basis set group =>   2
Atom   4C    basis set group =>   1
Atom   5C    basis set group =>   1
Atom   6C    basis set group =>   1
Atom   7C    basis set group =>   1
Atom   8C    basis set group =>   1
Atom   9C    basis set group =>   1
Atom  10C    basis set group =>   1
Atom  11C    basis set group =>   1
Atom  12O    basis set group =>   2
Atom  13C    basis set group =>   1
Atom  14C    basis set group =>   1
Atom  15O    basis set group =>   2
Atom  16C    basis set group =>   1
Atom  17N    basis set group =>   3
Atom  18C    basis set group =>   1
Atom  19C    basis set group =>   1
Atom  20C    basis set group =>   1
Atom  21H    basis set group =>   4
Atom  22H    basis set group =>   4
Atom  23H    basis set group =>   4
Atom  24H    basis set group =>   4
Atom  25H    basis set group =>   4
Atom  26H    basis set group =>   4
Atom  27H    basis set group =>   4
Atom  28H    basis set group =>   4
Atom  29H    basis set group =>   4
Atom  30H    basis set group =>   4
Atom  31H    basis set group =>   4
Atom  32H    basis set group =>   4
Atom  33H    basis set group =>   4
Atom  34H    basis set group =>   4
Atom  35H    basis set group =>   4
Atom  36H    basis set group =>   4
Atom  37H    basis set group =>   4
Atom  38H    basis set group =>   4
Atom  39H    basis set group =>   4
Atom  40H    basis set group =>   4
Atom  41H    basis set group =>   4
Atom  42H    basis set group =>   4
Atom  43H    basis set group =>   4


           ************************************************************
           *        Program running with 16 parallel MPI-processes    *
           *              working on a common directory               *
           ************************************************************
------------------------------------------------------------------------------
                           ORCA GTO INTEGRAL CALCULATION
------------------------------------------------------------------------------
------------------------------------------------------------------------------
                   ___                                                        
                  /   \      - P O W E R E D   B Y -                         
                 /     \                                                     
                 |  |  |   _    _      __       _____    __    __             
                 |  |  |  | |  | |    /  \     |  _  \  |  |  /  |          
                  \  \/   | |  | |   /    \    | | | |  |  | /  /          
                 / \  \   | |__| |  /  /\  \   | |_| |  |  |/  /          
                |  |  |   |  __  | /  /__\  \  |    /   |      \           
                |  |  |   | |  | | |   __   |  |    \   |  |\   \          
                \     /   | |  | | |  |  |  |  | |\  \  |  | \   \       
                 \___/    |_|  |_| |__|  |__|  |_| \__\ |__|  \__/        
                                                                              
                      - O R C A' S   B I G   F R I E N D -                    
                                      &                                       
                       - I N T E G R A L  F E E D E R -                       
                                                                              
 v1 FN, 2020, v2 2021                                                         
------------------------------------------------------------------------------


Reading SHARK input file ./ZINC000000000150/ZINC000000000150.SHARKINP.tmp ... ok
----------------------
SHARK INTEGRAL PACKAGE
----------------------

Number of atoms                             ...     44
Number of basis functions                   ...    409
Number of shells                            ...    195
Maximum angular momentum                    ...      2
Integral batch strategy                     ... SHARK/LIBINT Hybrid
RI-J (if used) integral strategy            ... SPLIT-RIJ (Revised 2003 algorithm where possible)
Printlevel                                  ...      1
Contraction scheme used                     ... SEGMENTED contraction
Coulomb Range Separation                    ... NOT USED
Exchange Range Separation                   ... NOT USED
Finite Nucleus Model                        ... NOT USED
Auxiliary Coulomb fitting basis             ... NOT available
Auxiliary J/K fitting basis                 ... NOT available
Auxiliary Correlation fitting basis         ... NOT available
Auxiliary 'external' fitting basis          ... NOT available
Integral threshold                          ...     2.500000e-11
Primitive cut-off                           ...     2.500000e-12
Primitive pair pre-selection threshold      ...     2.500000e-12

Calculating pre-screening integrals         ... done (  0.0 sec) Dimension = 195
Organizing shell pair data                  ... done (  0.1 sec)
Shell pair information
Total number of shell pairs                 ...     19110
Shell pairs after pre-screening             ...     12431
Total number of primitive shell pairs       ...     67870
Primitive shell pairs kept                  ...     28331
          la=0 lb=0:   4089 shell pairs
          la=1 lb=0:   4700 shell pairs
          la=1 lb=1:   1386 shell pairs
          la=2 lb=0:   1362 shell pairs
          la=2 lb=1:    779 shell pairs
          la=2 lb=2:    115 shell pairs

Calculating one electron integrals          ... done (  0.0 sec)
Calculating Nuclear repulsion               ... done (  0.0 sec) ENN=   1642.938419735025 Eh

SHARK setup successfully completed in   0.2 seconds

Maximum memory used throughout the entire GTOINT-calculation: 18.9 MB


           ************************************************************
           *        Program running with 16 parallel MPI-processes    *
           *              working on a common directory               *
           ************************************************************
-------------------------------------------------------------------------------
                                 ORCA SCF
-------------------------------------------------------------------------------

------------
SCF SETTINGS
------------
Hamiltonian:
 Ab initio Hamiltonian  Method          .... Hartree-Fock(GTOs)


General Settings:
 Integral files         IntName         .... ./ZINC000000000150/ZINC000000000150
 Hartree-Fock type      HFTyp           .... RHF
 Total Charge           Charge          ....    0
 Multiplicity           Mult            ....    1
 Number of Electrons    NEL             ....  158
 Basis Dimension        Dim             ....  409
 Nuclear Repulsion      ENuc            ....   1642.9384197350 Eh

Convergence Acceleration:
 DIIS                   CNVDIIS         .... on
   Start iteration      DIISMaxIt       ....    12
   Startup error        DIISStart       ....  0.200000
   # of expansion vecs  DIISMaxEq       ....     5
   Bias factor          DIISBfac        ....   1.050
   Max. coefficient     DIISMaxC        ....  10.000
 Trust-Rad. Augm. Hess. CNVTRAH         .... auto
   Auto Start mean grad. ratio tolernc. ....  1.125000
   Auto Start start iteration           ....    20
   Auto Start num. interpolation iter.  ....    10
   Max. Number of Micro iterations      ....    16
   Max. Number of Macro iterations      .... Maxiter - #DIIS iter
   Number of Davidson start vectors     ....     2
   Converg. threshold I  (grad. norm)   ....   1.000e-05
   Converg. threshold II (energy diff.) ....   1.000e-08
   Grad. Scal. Fac. for Micro threshold ....   0.100
   Minimum threshold for Micro iter.    ....   0.010
   NR start threshold (gradient norm)   ....   0.001
   Initial trust radius                 ....   0.400
   Minimum AH scaling param. (alpha)    ....   1.000
   Maximum AH scaling param. (alpha)    .... 1000.000
   Orbital update algorithm             .... Taylor
   White noise on init. David. guess    .... on
   Maximum white noise                  ....   0.010
   Quad. conv. algorithm                .... NR
 SOSCF                  CNVSOSCF        .... on
   Start iteration      SOSCFMaxIt      ....   150
   Startup grad/error   SOSCFStart      ....  0.003300
 Level Shifting         CNVShift        .... on
   Level shift para.    LevelShift      ....    0.2500
   Turn off err/grad.   ShiftErr        ....    0.0010
 Zerner damping         CNVZerner       .... off
 Static damping         CNVDamp         .... on
   Fraction old density DampFac         ....    0.7000
   Max. Damping (<1)    DampMax         ....    0.9800
   Min. Damping (>=0)   DampMin         ....    0.0000
   Turn off err/grad.   DampErr         ....    0.1000
 Fernandez-Rico         CNVRico         .... off

SCF Procedure:
 Maximum # iterations   MaxIter         ....   125
 SCF integral mode      SCFMode         .... Direct
   Integral package                     .... SHARK and LIBINT hybrid scheme
 Reset frequency        DirectResetFreq ....    20
 Integral Threshold     Thresh          ....  2.500e-11 Eh
 Primitive CutOff       TCut            ....  2.500e-12 Eh

Convergence Tolerance:
 Convergence Check Mode ConvCheckMode   .... Total+1el-Energy
 Convergence forced     ConvForced      .... 0
 Energy Change          TolE            ....  1.000e-08 Eh
 1-El. energy change                    ....  1.000e-05 Eh
 Orbital Gradient       TolG            ....  1.000e-05
 Orbital Rotation angle TolX            ....  1.000e-05
 DIIS Error             TolErr          ....  5.000e-07


Diagonalization of the overlap matrix:
Smallest eigenvalue                        ... 2.429e-04
Time for diagonalization                   ...    0.020 sec
Threshold for overlap eigenvalues          ... 1.000e-08
Number of eigenvalues below threshold      ... 0
Time for construction of square roots      ...    0.014 sec
Total time needed                          ...    0.036 sec

Time for model grid setup =    0.187 sec

------------------------------
INITIAL GUESS: MODEL POTENTIAL
------------------------------
Loading Hartree-Fock densities                     ... done
Calculating cut-offs                               ... done
Initializing the effective Hamiltonian             ... done
Setting up the integral package (SHARK)            ... done
Starting the Coulomb interaction                   ... done (   0.1 sec)
Reading the grid                                   ... done
Mapping shells                                     ... done
Starting the XC term evaluation                    ... done (   0.0 sec)
Transforming the Hamiltonian                       ... done (   0.0 sec)
Diagonalizing the Hamiltonian                      ... done (   0.0 sec)
Back transforming the eigenvectors                 ... done (   0.0 sec)
Now organizing SCF variables                       ... done
                      ------------------
                      INITIAL GUESS DONE (   0.3 sec)
                      ------------------
--------------
SCF ITERATIONS
--------------
ITER       Energy         Delta-E        Max-DP      RMS-DP      [F,P]     Damp
               ***  Starting incremental Fock matrix formation  ***
  0   -971.6720572586   0.000000000000 0.06683965  0.00156904  0.2409530 0.7000
  1   -971.9307013315  -0.258644072966 0.05153045  0.00121204  0.1460555 0.7000
                               ***Turning on DIIS***
  2   -972.0889429031  -0.158241571592 0.12642359  0.00276783  0.0845435 0.0000
  3   -971.1621987214   0.926744181693 0.03465792  0.00065295  0.0541210 0.0000
  4   -972.4771123900  -1.314913668537 0.01072385  0.00022606  0.0097253 0.0000
  5   -972.4261777580   0.050934631933 0.00633103  0.00010147  0.0079062 0.0000
                      *** Initiating the SOSCF procedure ***
                           *** Shutting down DIIS ***
                      *** Re-Reading the Fockian *** 
                      *** Removing any level shift *** 
ITER      Energy       Delta-E        Grad      Rot      Max-DP    RMS-DP
  6   -972.41934334   0.0068344131  0.001353  0.001353  0.002545  0.000047
               *** Restarting incremental Fock matrix formation ***
  7   -972.42322969  -0.0038863434  0.000503  0.001279  0.001711  0.000023
  8   -972.42324890  -0.0000192086  0.000336  0.001303  0.001346  0.000022
  9   -972.42325449  -0.0000055897  0.000145  0.000178  0.000334  0.000005
 10   -972.42325527  -0.0000007859  0.000037  0.000071  0.000068  0.000001
 11   -972.42325535  -0.0000000748  0.000015  0.000049  0.000060  0.000001
 12   -972.42325537  -0.0000000210  0.000008  0.000032  0.000025  0.000000
                  ***Gradient check signals convergence***
              ***Rediagonalizing the Fockian in SOSCF/NRSCF***

               *****************************************************
               *                     SUCCESS                       *
               *           SCF CONVERGED AFTER  13 CYCLES          *
               *****************************************************


----------------
TOTAL SCF ENERGY
----------------

Total Energy       :         -972.42325537 Eh          -26460.98203 eV

Components:
Nuclear Repulsion  :         1642.93841974 Eh           44706.62724 eV
Electronic Energy  :        -2615.36167510 Eh          -71167.60927 eV
One Electron Energy:        -4590.87344221 Eh         -124924.01738 eV
Two Electron Energy:         1975.51176711 Eh           53756.40811 eV

Virial components:
Potential Energy   :        -1940.17543322 Eh          -52794.85758 eV
Kinetic Energy     :          967.75217785 Eh           26333.87555 eV
Virial Ratio       :            2.00482673


---------------
SCF CONVERGENCE
---------------

  Last Energy change         ...    9.8680e-11  Tolerance :   1.0000e-08
  Last MAX-Density change    ...    4.9113e-06  Tolerance :   1.0000e-07
  Last RMS-Density change    ...    1.1786e-07  Tolerance :   5.0000e-09
  Last Orbital Gradient      ...    2.4596e-06  Tolerance :   1.0000e-05
  Last Orbital Rotation      ...    9.3791e-06  Tolerance :   1.0000e-05

             **** THE GBW FILE WAS UPDATED (./ZINC000000000150/ZINC000000000150.gbw) ****
             **** DENSITY ./ZINC000000000150/ZINC000000000150.scfp WAS UPDATED ****
             **** ENERGY FILE WAS UPDATED (./ZINC000000000150/ZINC000000000150.en.tmp) ****
             **** THE GBW FILE WAS UPDATED (./ZINC000000000150/ZINC000000000150.gbw) ****
             **** DENSITY ./ZINC000000000150/ZINC000000000150.scfp WAS UPDATED ****
----------------
ORBITAL ENERGIES
----------------

  NO   OCC          E(Eh)            E(eV) 
   0   2.0000     -20.602280      -560.6165 
   1   2.0000     -20.598666      -560.5182 
   2   2.0000     -20.552507      -559.2622 
   3   2.0000     -20.536517      -558.8270 
   4   2.0000     -15.542391      -422.9300 
   5   2.0000     -11.383903      -309.7718 
   6   2.0000     -11.327842      -308.2463 
   7   2.0000     -11.309355      -307.7432 
   8   2.0000     -11.293592      -307.3143 
   9   2.0000     -11.291683      -307.2623 
  10   2.0000     -11.269961      -306.6712 
  11   2.0000     -11.262243      -306.4612 
  12   2.0000     -11.260247      -306.4069 
  13   2.0000     -11.260159      -306.4045 
  14   2.0000     -11.258971      -306.3722 
  15   2.0000     -11.254376      -306.2472 
  16   2.0000     -11.246374      -306.0294 
  17   2.0000     -11.245599      -306.0083 
  18   2.0000     -11.244923      -305.9899 
  19   2.0000     -11.214891      -305.1727 
  20   2.0000     -11.210353      -305.0492 
  21   2.0000      -1.439509       -39.1710 
  22   2.0000      -1.414397       -38.4877 
  23   2.0000      -1.340270       -36.4706 
  24   2.0000      -1.336436       -36.3663 
  25   2.0000      -1.194574       -32.5060 
  26   2.0000      -1.162234       -31.6260 
  27   2.0000      -1.089034       -29.6341 
  28   2.0000      -1.049660       -28.5627 
  29   2.0000      -1.023409       -27.8484 
  30   2.0000      -1.019876       -27.7522 
  31   2.0000      -0.989306       -26.9204 
  32   2.0000      -0.955526       -26.0012 
  33   2.0000      -0.927926       -25.2502 
  34   2.0000      -0.910361       -24.7722 
  35   2.0000      -0.878782       -23.9129 
  36   2.0000      -0.835412       -22.7327 
  37   2.0000      -0.811930       -22.0938 
  38   2.0000      -0.801084       -21.7986 
  39   2.0000      -0.765611       -20.8333 
  40   2.0000      -0.762959       -20.7612 
  41   2.0000      -0.736091       -20.0301 
  42   2.0000      -0.715709       -19.4754 
  43   2.0000      -0.707087       -19.2408 
  44   2.0000      -0.689881       -18.7726 
  45   2.0000      -0.685722       -18.6594 
  46   2.0000      -0.672567       -18.3015 
  47   2.0000      -0.668176       -18.1820 
  48   2.0000      -0.661338       -17.9959 
  49   2.0000      -0.655953       -17.8494 
  50   2.0000      -0.632714       -17.2170 
  51   2.0000      -0.615809       -16.7570 
  52   2.0000      -0.610123       -16.6023 
  53   2.0000      -0.607079       -16.5195 
  54   2.0000      -0.599148       -16.3036 
  55   2.0000      -0.594709       -16.1828 
  56   2.0000      -0.581948       -15.8356 
  57   2.0000      -0.572024       -15.5656 
  58   2.0000      -0.556256       -15.1365 
  59   2.0000      -0.552153       -15.0248 
  60   2.0000      -0.546404       -14.8684 
  61   2.0000      -0.537115       -14.6157 
  62   2.0000      -0.530964       -14.4483 
  63   2.0000      -0.527592       -14.3565 
  64   2.0000      -0.523085       -14.2339 
  65   2.0000      -0.521095       -14.1797 
  66   2.0000      -0.512252       -13.9391 
  67   2.0000      -0.502412       -13.6713 
  68   2.0000      -0.498177       -13.5561 
  69   2.0000      -0.484592       -13.1864 
  70   2.0000      -0.483018       -13.1436 
  71   2.0000      -0.468168       -12.7395 
  72   2.0000      -0.462360       -12.5815 
  73   2.0000      -0.449877       -12.2418 
  74   2.0000      -0.443478       -12.0676 
  75   2.0000      -0.410059       -11.1583 
  76   2.0000      -0.366022        -9.9600 
  77   2.0000      -0.346572        -9.4307 
  78   2.0000      -0.322069        -8.7639 
  79   0.0000       0.071970         1.9584 
  80   0.0000       0.123442         3.3590 
  81   0.0000       0.148119         4.0305 
  82   0.0000       0.157691         4.2910 
  83   0.0000       0.174427         4.7464 
  84   0.0000       0.188296         5.1238 
  85   0.0000       0.195408         5.3173 
  86   0.0000       0.199578         5.4308 
  87   0.0000       0.205339         5.5876 
  88   0.0000       0.216405         5.8887 
  89   0.0000       0.235489         6.4080 
  90   0.0000       0.236547         6.4368 
  91   0.0000       0.238322         6.4851 
  92   0.0000       0.242552         6.6002 
  93   0.0000       0.247495         6.7347 
  94   0.0000       0.250005         6.8030 
  95   0.0000       0.251789         6.8515 
  96   0.0000       0.257317         7.0020 
  97   0.0000       0.262239         7.1359 
  98   0.0000       0.270813         7.3692 
  99   0.0000       0.274789         7.4774 
 100   0.0000       0.282808         7.6956 
 101   0.0000       0.287379         7.8200 
 102   0.0000       0.299359         8.1460 
 103   0.0000       0.303353         8.2547 
 104   0.0000       0.310083         8.4378 
 105   0.0000       0.320807         8.7296 
 106   0.0000       0.322510         8.7759 
 107   0.0000       0.347295         9.4504 
 108   0.0000       0.358699         9.7607 
 109   0.0000       0.364429         9.9166 
 110   0.0000       0.382243        10.4014 
 111   0.0000       0.392022        10.6675 
 112   0.0000       0.399262        10.8645 
 113   0.0000       0.408676        11.1206 
 114   0.0000       0.415628        11.3098 
 115   0.0000       0.418079        11.3765 
 116   0.0000       0.435420        11.8484 
 117   0.0000       0.445169        12.1137 
 118   0.0000       0.449893        12.2422 
 119   0.0000       0.456183        12.4134 
 120   0.0000       0.465233        12.6596 
 121   0.0000       0.475918        12.9504 
 122   0.0000       0.491176        13.3656 
 123   0.0000       0.501694        13.6518 
 124   0.0000       0.506619        13.7858 
 125   0.0000       0.532082        14.4787 
 126   0.0000       0.555402        15.1133 
 127   0.0000       0.560473        15.2512 
 128   0.0000       0.587360        15.9829 
 129   0.0000       0.592767        16.1300 
 130   0.0000       0.604114        16.4388 
 131   0.0000       0.606177        16.4949 
 132   0.0000       0.616844        16.7852 
 133   0.0000       0.627702        17.0807 
 134   0.0000       0.630783        17.1645 
 135   0.0000       0.640420        17.4267 
 136   0.0000       0.648960        17.6591 
 137   0.0000       0.659768        17.9532 
 138   0.0000       0.664794        18.0900 
 139   0.0000       0.678674        18.4676 
 140   0.0000       0.683328        18.5943 
 141   0.0000       0.686490        18.6803 
 142   0.0000       0.688505        18.7352 
 143   0.0000       0.700222        19.0540 
 144   0.0000       0.708079        19.2678 
 145   0.0000       0.719041        19.5661 
 146   0.0000       0.728041        19.8110 
 147   0.0000       0.735038        20.0014 
 148   0.0000       0.761876        20.7317 
 149   0.0000       0.772850        21.0303 
 150   0.0000       0.779857        21.2210 
 151   0.0000       0.788065        21.4443 
 152   0.0000       0.792066        21.5532 
 153   0.0000       0.802148        21.8276 
 154   0.0000       0.818593        22.2750 
 155   0.0000       0.821195        22.3459 
 156   0.0000       0.829054        22.5597 
 157   0.0000       0.839069        22.8322 
 158   0.0000       0.841958        22.9108 
 159   0.0000       0.847910        23.0728 
 160   0.0000       0.848946        23.1010 
 161   0.0000       0.851918        23.1819 
 162   0.0000       0.859345        23.3840 
 163   0.0000       0.861148        23.4330 
 164   0.0000       0.863278        23.4910 
 165   0.0000       0.872409        23.7394 
 166   0.0000       0.875732        23.8299 
 167   0.0000       0.882255        24.0074 
 168   0.0000       0.885540        24.0968 
 169   0.0000       0.888128        24.1672 
 170   0.0000       0.889417        24.2023 
 171   0.0000       0.894753        24.3475 
 172   0.0000       0.899708        24.4823 
 173   0.0000       0.905214        24.6321 
 174   0.0000       0.909601        24.7515 
 175   0.0000       0.913535        24.8585 
 176   0.0000       0.917670        24.9711 
 177   0.0000       0.922045        25.0901 
 178   0.0000       0.926378        25.2080 
 179   0.0000       0.929114        25.2825 
 180   0.0000       0.935095        25.4452 
 181   0.0000       0.936155        25.4741 
 182   0.0000       0.942155        25.6373 
 183   0.0000       0.945415        25.7260 
 184   0.0000       0.950505        25.8646 
 185   0.0000       0.958988        26.0954 
 186   0.0000       0.959713        26.1151 
 187   0.0000       0.965100        26.2617 
 188   0.0000       0.971172        26.4269 
 189   0.0000       0.971290        26.4302 
 190   0.0000       0.988357        26.8946 
 191   0.0000       0.994442        27.0602 
 192   0.0000       0.995956        27.1013 
 193   0.0000       1.003505        27.3068 
 194   0.0000       1.019716        27.7479 
 195   0.0000       1.023673        27.8556 
 196   0.0000       1.042910        28.3790 
 197   0.0000       1.072886        29.1947 
 198   0.0000       1.086522        29.5658 
 199   0.0000       1.098483        29.8912 
 200   0.0000       1.103938        30.0397 
 201   0.0000       1.128794        30.7160 
 202   0.0000       1.131089        30.7785 
 203   0.0000       1.153108        31.3777 
 204   0.0000       1.156875        31.4802 
 205   0.0000       1.185166        32.2500 
 206   0.0000       1.198598        32.6155 
 207   0.0000       1.214521        33.0488 
 208   0.0000       1.237794        33.6821 
 209   0.0000       1.256267        34.1848 
 210   0.0000       1.274143        34.6712 
 211   0.0000       1.286015        34.9942 
 212   0.0000       1.311987        35.7010 
 213   0.0000       1.315444        35.7951 
 214   0.0000       1.325240        36.0616 
 215   0.0000       1.334828        36.3225 
 216   0.0000       1.349887        36.7323 
 217   0.0000       1.357339        36.9351 
 218   0.0000       1.366030        37.1716 
 219   0.0000       1.371299        37.3149 
 220   0.0000       1.400148        38.1000 
 221   0.0000       1.414680        38.4954 
 222   0.0000       1.424209        38.7547 
 223   0.0000       1.448162        39.4065 
 224   0.0000       1.454470        39.5782 
 225   0.0000       1.477945        40.2169 
 226   0.0000       1.486427        40.4477 
 227   0.0000       1.495462        40.6936 
 228   0.0000       1.501917        40.8692 
 229   0.0000       1.518565        41.3223 
 230   0.0000       1.528290        41.5869 
 231   0.0000       1.531868        41.6843 
 232   0.0000       1.537486        41.8371 
 233   0.0000       1.545837        42.0644 
 234   0.0000       1.557613        42.3848 
 235   0.0000       1.561036        42.4780 
 236   0.0000       1.586931        43.1826 
 237   0.0000       1.591101        43.2961 
 238   0.0000       1.603227        43.6260 
 239   0.0000       1.621557        44.1248 
 240   0.0000       1.629473        44.3402 
 241   0.0000       1.644011        44.7358 
 242   0.0000       1.663527        45.2669 
 243   0.0000       1.687290        45.9135 
 244   0.0000       1.715005        46.6677 
 245   0.0000       1.720489        46.8169 
 246   0.0000       1.749505        47.6065 
 247   0.0000       1.754609        47.7453 
 248   0.0000       1.778683        48.4004 
 249   0.0000       1.786113        48.6026 
 250   0.0000       1.799298        48.9614 
 251   0.0000       1.806134        49.1474 
 252   0.0000       1.818917        49.4952 
 253   0.0000       1.828390        49.7530 
 254   0.0000       1.836171        49.9647 
 255   0.0000       1.858781        50.5800 
 256   0.0000       1.875049        51.0227 
 257   0.0000       1.906428        51.8765 
 258   0.0000       1.919637        52.2360 
 259   0.0000       1.931940        52.5708 
 260   0.0000       1.938159        52.7400 
 261   0.0000       1.951102        53.0922 
 262   0.0000       1.962453        53.4011 
 263   0.0000       1.968097        53.5546 
 264   0.0000       1.974191        53.7205 
 265   0.0000       1.981850        53.9289 
 266   0.0000       1.989516        54.1375 
 267   0.0000       1.998161        54.3727 
 268   0.0000       2.001719        54.4696 
 269   0.0000       2.010386        54.7054 
 270   0.0000       2.017093        54.8879 
 271   0.0000       2.025285        55.1108 
 272   0.0000       2.032720        55.3131 
 273   0.0000       2.036676        55.4208 
 274   0.0000       2.046351        55.6840 
 275   0.0000       2.054553        55.9072 
 276   0.0000       2.064345        56.1737 
 277   0.0000       2.068449        56.2854 
 278   0.0000       2.079645        56.5900 
 279   0.0000       2.082350        56.6636 
 280   0.0000       2.096551        57.0501 
 281   0.0000       2.099964        57.1429 
 282   0.0000       2.105329        57.2889 
 283   0.0000       2.112173        57.4751 
 284   0.0000       2.116485        57.5925 
 285   0.0000       2.123523        57.7840 
 286   0.0000       2.131615        58.0042 
 287   0.0000       2.136670        58.1418 
 288   0.0000       2.139938        58.2307 
 289   0.0000       2.143052        58.3154 
 290   0.0000       2.155500        58.6541 
 291   0.0000       2.159448        58.7616 
 292   0.0000       2.170556        59.0638 
 293   0.0000       2.172642        59.1206 
 294   0.0000       2.186890        59.5083 
 295   0.0000       2.200127        59.8685 
 296   0.0000       2.201831        59.9149 
 297   0.0000       2.214166        60.2505 
 298   0.0000       2.215730        60.2931 
 299   0.0000       2.230532        60.6958 
 300   0.0000       2.232759        60.7565 
 301   0.0000       2.237494        60.8853 
 302   0.0000       2.251553        61.2679 
 303   0.0000       2.258101        61.4460 
 304   0.0000       2.262490        61.5655 
 305   0.0000       2.285545        62.1928 
 306   0.0000       2.289101        62.2896 
 307   0.0000       2.295402        62.4611 
 308   0.0000       2.307937        62.8022 
 309   0.0000       2.313943        62.9656 
 310   0.0000       2.333830        63.5067 
 311   0.0000       2.344339        63.7927 
 312   0.0000       2.368754        64.4571 
 313   0.0000       2.378723        64.7283 
 314   0.0000       2.380531        64.7775 
 315   0.0000       2.407418        65.5092 
 316   0.0000       2.414143        65.6922 
 317   0.0000       2.433091        66.2078 
 318   0.0000       2.441640        66.4404 
 319   0.0000       2.448183        66.6184 
 320   0.0000       2.464312        67.0573 
 321   0.0000       2.474629        67.3381 
 322   0.0000       2.486662        67.6655 
 323   0.0000       2.487438        67.6866 
 324   0.0000       2.504467        68.1500 
 325   0.0000       2.508594        68.2623 
 326   0.0000       2.538825        69.0849 
 327   0.0000       2.552574        69.4591 
 328   0.0000       2.564953        69.7959 
 329   0.0000       2.578092        70.1535 
 330   0.0000       2.593607        70.5756 
 331   0.0000       2.597848        70.6910 
 332   0.0000       2.608401        70.9782 
 333   0.0000       2.618937        71.2649 
 334   0.0000       2.624364        71.4126 
 335   0.0000       2.635039        71.7030 
 336   0.0000       2.649571        72.0985 
 337   0.0000       2.668462        72.6125 
 338   0.0000       2.695143        73.3386 
 339   0.0000       2.700459        73.4832 
 340   0.0000       2.712601        73.8136 
 341   0.0000       2.728466        74.2453 
 342   0.0000       2.749396        74.8149 
 343   0.0000       2.753627        74.9300 
 344   0.0000       2.761422        75.1421 
 345   0.0000       2.767775        75.3150 
 346   0.0000       2.822571        76.8061 
 347   0.0000       2.827475        76.9395 
 348   0.0000       2.833626        77.1069 
 349   0.0000       2.846956        77.4696 
 350   0.0000       2.860637        77.8419 
 351   0.0000       2.891249        78.6749 
 352   0.0000       2.910128        79.1886 
 353   0.0000       2.934673        79.8565 
 354   0.0000       2.937052        79.9212 
 355   0.0000       2.946564        80.1801 
 356   0.0000       2.956020        80.4374 
 357   0.0000       2.985631        81.2432 
 358   0.0000       3.006080        81.7996 
 359   0.0000       3.009861        81.9025 
 360   0.0000       3.041701        82.7689 
 361   0.0000       3.049161        82.9719 
 362   0.0000       3.063666        83.3666 
 363   0.0000       3.068853        83.5077 
 364   0.0000       3.070909        83.5637 
 365   0.0000       3.077018        83.7299 
 366   0.0000       3.104455        84.4765 
 367   0.0000       3.119082        84.8745 
 368   0.0000       3.148322        85.6702 
 369   0.0000       3.150633        85.7331 
 370   0.0000       3.173945        86.3674 
 371   0.0000       3.181154        86.5636 
 372   0.0000       3.216921        87.5369 
 373   0.0000       3.221035        87.6488 
 374   0.0000       3.226970        87.8103 
 375   0.0000       3.237892        88.1075 
 376   0.0000       3.264705        88.8371 
 377   0.0000       3.271081        89.0106 
 378   0.0000       3.282884        89.3318 
 379   0.0000       3.296299        89.6969 
 380   0.0000       3.305892        89.9579 
 381   0.0000       3.321889        90.3932 
 382   0.0000       3.332044        90.6695 
 383   0.0000       3.335536        90.7646 
 384   0.0000       3.343843        90.9906 
 385   0.0000       3.355177        91.2990 
 386   0.0000       3.363130        91.5154 
 387   0.0000       3.379651        91.9650 
 388   0.0000       3.397547        92.4520 
 389   0.0000       3.408256        92.7434 
 390   0.0000       3.430008        93.3353 
 391   0.0000       3.450845        93.9023 
 392   0.0000       3.464479        94.2733 
 393   0.0000       3.491057        94.9965 
 394   0.0000       3.536901        96.2440 
 395   0.0000       3.543809        96.4320 
 396   0.0000       3.580845        97.4398 
 397   0.0000       3.589288        97.6695 
 398   0.0000       3.599104        97.9366 
 399   0.0000       3.637207        98.9734 
 400   0.0000       3.769326       102.5686 
 401   0.0000       3.778569       102.8201 
 402   0.0000       3.807408       103.6048 
 403   0.0000       3.823862       104.0526 
 404   0.0000       3.886358       105.7532 
 405   0.0000       4.037535       109.8669 
 406   0.0000       4.071826       110.8000 
 407   0.0000       4.094160       111.4078 
 408   0.0000       4.192327       114.0790 

                    ********************************
                    * MULLIKEN POPULATION ANALYSIS *
                    ********************************

-----------------------
MULLIKEN ATOMIC CHARGES
-----------------------
   0 C :    0.233638
   1 O :   -0.545933
   2 C :    0.557808
   3 O :   -0.420501
   4 C :   -0.199848
   5 C :    0.132124
   6 C :   -0.181975
   7 C :    0.013264
   8 C :   -0.062635
   9 C :    0.008527
  10 C :   -0.150402
  11 C :    0.370480
  12 O :   -0.591625
  13 C :    0.278048
  14 C :    0.139180
  15 O :   -0.461867
  16 C :    0.174949
  17 N :   -0.479159
  18 C :   -0.015467
  19 C :   -0.000159
  20 C :   -0.008849
  21 H :    0.046540
  22 H :    0.042042
  23 H :    0.047206
  24 H :    0.066802
  25 H :    0.087818
  26 H :    0.050795
  27 H :    0.044343
  28 H :    0.049138
  29 H :    0.041056
  30 H :    0.048661
  31 H :    0.040812
  32 H :    0.030224
  33 H :    0.210554
  34 H :    0.051996
  35 H :    0.026521
  36 H :    0.118518
  37 H :    0.034610
  38 H :    0.027220
  39 H :    0.032374
  40 H :    0.013602
  41 H :    0.044175
  42 H :    0.026325
  43 H :    0.029069
Sum of atomic charges:   -0.0000000

--------------------------------
MULLIKEN REDUCED ORBITAL CHARGES
--------------------------------
  0 C s       :     3.019832  s :     3.019832
      pz      :     0.980525  p :     2.685159
      px      :     0.961144
      py      :     0.743490
      dz2     :     0.014994  d :     0.061371
      dxz     :     0.005136
      dyz     :     0.011730
      dx2y2   :     0.014802
      dxy     :     0.014709
  1 O s       :     3.795676  s :     3.795676
      pz      :     1.757920  p :     4.732072
      px      :     1.719211
      py      :     1.254942
      dz2     :     0.002124  d :     0.018184
      dxz     :     0.002325
      dyz     :     0.004903
      dx2y2   :     0.002326
      dxy     :     0.006507
  2 C s       :     2.970670  s :     2.970670
      pz      :     0.740652  p :     2.318915
      px      :     0.767608
      py      :     0.810654
      dz2     :     0.027149  d :     0.152607
      dxz     :     0.018756
      dyz     :     0.033251
      dx2y2   :     0.029201
      dxy     :     0.044249
  3 O s       :     3.784111  s :     3.784111
      pz      :     1.408565  p :     4.615969
      px      :     1.378604
      py      :     1.828800
      dz2     :     0.004903  d :     0.020422
      dxz     :     0.007102
      dyz     :     0.001578
      dx2y2   :     0.004460
      dxy     :     0.002379
  4 C s       :     3.223162  s :     3.223162
      pz      :     1.002326  p :     2.937287
      px      :     0.960419
      py      :     0.974543
      dz2     :     0.006736  d :     0.039398
      dxz     :     0.006013
      dyz     :     0.007349
      dx2y2   :     0.008744
      dxy     :     0.010556
  5 C s       :     3.103389  s :     3.103389
      pz      :     0.881512  p :     2.719165
      px      :     0.890425
      py      :     0.947228
      dz2     :     0.009727  d :     0.045321
      dxz     :     0.006862
      dyz     :     0.007559
      dx2y2   :     0.010683
      dxy     :     0.010491
  6 C s       :     3.048400  s :     3.048400
      pz      :     1.069712  p :     3.084247
      px      :     0.996134
      py      :     1.018401
      dz2     :     0.005452  d :     0.049328
      dxz     :     0.007679
      dyz     :     0.006594
      dx2y2   :     0.016030
      dxy     :     0.013572
  7 C s       :     3.159373  s :     3.159373
      pz      :     0.942909  p :     2.783152
      px      :     0.924182
      py      :     0.916061
      dz2     :     0.005533  d :     0.044211
      dxz     :     0.004942
      dyz     :     0.007850
      dx2y2   :     0.013389
      dxy     :     0.012497
  8 C s       :     3.132189  s :     3.132189
      pz      :     1.011117  p :     2.887110
      px      :     0.935305
      py      :     0.940688
      dz2     :     0.004268  d :     0.043336
      dxz     :     0.007146
      dyz     :     0.005249
      dx2y2   :     0.013166
      dxy     :     0.013507
  9 C s       :     3.117078  s :     3.117078
      pz      :     0.942780  p :     2.829200
      px      :     0.954168
      py      :     0.932253
      dz2     :     0.004135  d :     0.045195
      dxz     :     0.008791
      dyz     :     0.005117
      dx2y2   :     0.013212
      dxy     :     0.013941
 10 C s       :     3.185048  s :     3.185048
      pz      :     1.054314  p :     2.923991
      px      :     0.916072
      py      :     0.953605
      dz2     :     0.004956  d :     0.041363
      dxz     :     0.004612
      dyz     :     0.007300
      dx2y2   :     0.012974
      dxy     :     0.011522
 11 C s       :     2.988130  s :     2.988130
      pz      :     0.894893  p :     2.556808
      px      :     0.924698
      py      :     0.737218
      dz2     :     0.009847  d :     0.084582
      dxz     :     0.013142
      dyz     :     0.014250
      dx2y2   :     0.023277
      dxy     :     0.024065
 12 O s       :     3.803883  s :     3.803883
      pz      :     1.810554  p :     4.770486
      px      :     1.369933
      py      :     1.589999
      dz2     :     0.002328  d :     0.017256
      dxz     :     0.002323
      dyz     :     0.002743
      dx2y2   :     0.006004
      dxy     :     0.003858
 13 C s       :     3.004342  s :     3.004342
      pz      :     0.963724  p :     2.648922
      px      :     0.619698
      py      :     1.065500
      dz2     :     0.013575  d :     0.068688
      dxz     :     0.014769
      dyz     :     0.007613
      dx2y2   :     0.022911
      dxy     :     0.009820
 14 C s       :     3.096286  s :     3.096286
      pz      :     0.763389  p :     2.684339
      px      :     0.998007
      py      :     0.922943
      dz2     :     0.021579  d :     0.080195
      dxz     :     0.014345
      dyz     :     0.018999
      dx2y2   :     0.015678
      dxy     :     0.009593
 15 O s       :     3.767457  s :     3.767457
      pz      :     1.586802  p :     4.680515
      px      :     1.320887
      py      :     1.772825
      dz2     :     0.004221  d :     0.013895
      dxz     :     0.001527
      dyz     :     0.003654
      dx2y2   :     0.003962
      dxy     :     0.000531
 16 C s       :     3.010927  s :     3.010927
      pz      :     1.032808  p :     2.754222
      px      :     0.857019
      py      :     0.864395
      dz2     :     0.009431  d :     0.059903
      dxz     :     0.005771
      dyz     :     0.013401
      dx2y2   :     0.018513
      dxy     :     0.012786
 17 N s       :     3.525812  s :     3.525812
      pz      :     1.092923  p :     3.926291
      px      :     1.681981
      py      :     1.151387
      dz2     :     0.004610  d :     0.027056
      dxz     :     0.004096
      dyz     :     0.008654
      dx2y2   :     0.003149
      dxy     :     0.006548
 18 C s       :     3.117167  s :     3.117167
      pz      :     0.928668  p :     2.827840
      px      :     1.021545
      py      :     0.877626
      dz2     :     0.013011  d :     0.070461
      dxz     :     0.010970
      dyz     :     0.020296
      dx2y2   :     0.012357
      dxy     :     0.013827
 19 C s       :     3.038032  s :     3.038032
      pz      :     0.981373  p :     2.925099
      px      :     0.996067
      py      :     0.947659
      dz2     :     0.006303  d :     0.037028
      dxz     :     0.005205
      dyz     :     0.010440
      dx2y2   :     0.009071
      dxy     :     0.006009
 20 C s       :     3.038972  s :     3.038972
      pz      :     0.932401  p :     2.933248
      px      :     0.994887
      py      :     1.005960
      dz2     :     0.006905  d :     0.036629
      dxz     :     0.006400
      dyz     :     0.010199
      dx2y2   :     0.006401
      dxy     :     0.006725
 21 H s       :     0.928283  s :     0.928283
      pz      :     0.004831  p :     0.025177
      px      :     0.018056
      py      :     0.002290
 22 H s       :     0.933174  s :     0.933174
      pz      :     0.006074  p :     0.024785
      px      :     0.007271
      py      :     0.011440
 23 H s       :     0.927603  s :     0.927603
      pz      :     0.019150  p :     0.025190
      px      :     0.003807
      py      :     0.002234
 24 H s       :     0.907324  s :     0.907324
      pz      :     0.005392  p :     0.025874
      px      :     0.005941
      py      :     0.014541
 25 H s       :     0.886059  s :     0.886059
      pz      :     0.004342  p :     0.026122
      px      :     0.005835
      py      :     0.015945
 26 H s       :     0.923401  s :     0.923401
      pz      :     0.003699  p :     0.025803
      px      :     0.019441
      py      :     0.002663
 27 H s       :     0.929993  s :     0.929993
      pz      :     0.005568  p :     0.025664
      px      :     0.007860
      py      :     0.012236
 28 H s       :     0.925307  s :     0.925307
      pz      :     0.005901  p :     0.025555
      px      :     0.005338
      py      :     0.014316
 29 H s       :     0.932720  s :     0.932720
      pz      :     0.004444  p :     0.026223
      px      :     0.018580
      py      :     0.003200
 30 H s       :     0.927872  s :     0.927872
      pz      :     0.003501  p :     0.023467
      px      :     0.002051
      py      :     0.017915
 31 H s       :     0.934649  s :     0.934649
      pz      :     0.014855  p :     0.024539
      px      :     0.003372
      py      :     0.006312
 32 H s       :     0.947645  s :     0.947645
      pz      :     0.002264  p :     0.022131
      px      :     0.004652
      py      :     0.015215
 33 H s       :     0.719414  s :     0.719414
      pz      :     0.013007  p :     0.070033
      px      :     0.040455
      py      :     0.016570
 34 H s       :     0.923941  s :     0.923941
      pz      :     0.014700  p :     0.024063
      px      :     0.004712
      py      :     0.004651
 35 H s       :     0.950074  s :     0.950074
      pz      :     0.010451  p :     0.023405
      px      :     0.003764
      py      :     0.009190
 36 H s       :     0.836348  s :     0.836348
      pz      :     0.023968  p :     0.045133
      px      :     0.012944
      py      :     0.008221
 37 H s       :     0.943090  s :     0.943090
      pz      :     0.002323  p :     0.022299
      px      :     0.016657
      py      :     0.003319
 38 H s       :     0.947621  s :     0.947621
      pz      :     0.009057  p :     0.025159
      px      :     0.003907
      py      :     0.012195
 39 H s       :     0.942826  s :     0.942826
      pz      :     0.004138  p :     0.024800
      px      :     0.016346
      py      :     0.004316
 40 H s       :     0.961334  s :     0.961334
      pz      :     0.014049  p :     0.025063
      px      :     0.005962
      py      :     0.005052
 41 H s       :     0.930250  s :     0.930250
      pz      :     0.006818  p :     0.025576
      px      :     0.008461
      py      :     0.010296
 42 H s       :     0.948320  s :     0.948320
      pz      :     0.008497  p :     0.025355
      px      :     0.004199
      py      :     0.012659
 43 H s       :     0.946110  s :     0.946110
      pz      :     0.003305  p :     0.024821
      px      :     0.015570
      py      :     0.005945


                     *******************************
                     * LOEWDIN POPULATION ANALYSIS *
                     *******************************

----------------------
LOEWDIN ATOMIC CHARGES
----------------------
   0 C :    0.138051
   1 O :   -0.192419
   2 C :    0.211144
   3 O :   -0.277878
   4 C :   -0.087431
   5 C :    0.064784
   6 C :   -0.070553
   7 C :    0.013556
   8 C :   -0.050202
   9 C :    0.002845
  10 C :   -0.082223
  11 C :    0.110526
  12 O :   -0.198042
  13 C :    0.121506
  14 C :    0.076858
  15 O :   -0.196194
  16 C :    0.054644
  17 N :   -0.154997
  18 C :    0.036506
  19 C :   -0.034327
  20 C :   -0.033368
  21 H :    0.017206
  22 H :    0.017464
  23 H :    0.017462
  24 H :    0.035201
  25 H :    0.041150
  26 H :    0.034066
  27 H :    0.028537
  28 H :    0.031886
  29 H :    0.026123
  30 H :    0.022241
  31 H :    0.011411
  32 H :    0.006789
  33 H :    0.086603
  34 H :    0.023905
  35 H :    0.013960
  36 H :    0.045308
  37 H :   -0.004420
  38 H :    0.016021
  39 H :    0.016833
  40 H :    0.007222
  41 H :    0.016959
  42 H :    0.018847
  43 H :    0.016443

-------------------------------
LOEWDIN REDUCED ORBITAL CHARGES
-------------------------------
  0 C s       :     2.836441  s :     2.836441
      pz      :     1.037474  p :     2.894119
      px      :     1.024380
      py      :     0.832265
      dz2     :     0.033635  d :     0.131389
      dxz     :     0.010434
      dyz     :     0.024670
      dx2y2   :     0.031486
      dxy     :     0.031164
  1 O s       :     3.455247  s :     3.455247
      pz      :     1.733276  p :     4.706681
      px      :     1.703600
      py      :     1.269805
      dz2     :     0.003313  d :     0.030491
      dxz     :     0.002715
      dyz     :     0.008154
      dx2y2   :     0.005520
      dxy     :     0.010789
  2 C s       :     2.832795  s :     2.832795
      pz      :     0.827657  p :     2.647737
      px      :     0.888921
      py      :     0.931159
      dz2     :     0.048210  d :     0.308325
      dxz     :     0.040740
      dyz     :     0.068849
      dx2y2   :     0.057679
      dxy     :     0.092847
  3 O s       :     3.553996  s :     3.553996
      pz      :     1.447269  p :     4.692775
      px      :     1.447301
      py      :     1.798205
      dz2     :     0.005208  d :     0.031107
      dxz     :     0.013368
      dyz     :     0.002218
      dx2y2   :     0.006960
      dxy     :     0.003353
  4 C s       :     2.869354  s :     2.869354
      pz      :     1.045939  p :     3.126303
      px      :     1.050617
      py      :     1.029747
      dz2     :     0.012287  d :     0.091774
      dxz     :     0.014908
      dyz     :     0.018294
      dx2y2   :     0.020005
      dxy     :     0.026279
  5 C s       :     2.861408  s :     2.861408
      pz      :     0.942301  p :     2.974353
      px      :     0.986916
      py      :     1.045137
      dz2     :     0.017898  d :     0.099455
      dxz     :     0.015041
      dyz     :     0.017720
      dx2y2   :     0.023004
      dxy     :     0.025793
  6 C s       :     2.840399  s :     2.840399
      pz      :     1.026766  p :     3.119835
      px      :     1.048766
      py      :     1.044303
      dz2     :     0.010681  d :     0.110319
      dxz     :     0.015812
      dyz     :     0.013214
      dx2y2   :     0.038123
      dxy     :     0.032489
  7 C s       :     2.852752  s :     2.852752
      pz      :     0.956611  p :     3.034516
      px      :     1.044117
      py      :     1.033787
      dz2     :     0.010862  d :     0.099175
      dxz     :     0.009469
      dyz     :     0.016662
      dx2y2   :     0.033053
      dxy     :     0.029129
  8 C s       :     2.849044  s :     2.849044
      pz      :     1.009458  p :     3.103049
      px      :     1.054684
      py      :     1.038907
      dz2     :     0.008197  d :     0.098109
      dxz     :     0.014868
      dyz     :     0.010553
      dx2y2   :     0.031199
      dxy     :     0.033291
  9 C s       :     2.852018  s :     2.852018
      pz      :     0.950684  p :     3.044513
      px      :     1.066907
      py      :     1.026923
      dz2     :     0.007709  d :     0.100624
      dxz     :     0.018110
      dyz     :     0.010168
      dx2y2   :     0.031257
      dxy     :     0.033379
 10 C s       :     2.848767  s :     2.848767
      pz      :     1.047554  p :     3.138898
      px      :     1.041900
      py      :     1.049444
      dz2     :     0.009692  d :     0.094558
      dxz     :     0.008774
      dyz     :     0.015693
      dx2y2   :     0.032510
      dxy     :     0.027889
 11 C s       :     2.830062  s :     2.830062
      pz      :     0.933968  p :     2.879260
      px      :     1.011890
      py      :     0.933402
      dz2     :     0.018920  d :     0.180151
      dxz     :     0.026331
      dyz     :     0.029118
      dx2y2   :     0.053793
      dxy     :     0.051991
 12 O s       :     3.441084  s :     3.441084
      pz      :     1.780775  p :     4.727748
      px      :     1.354316
      py      :     1.592657
      dz2     :     0.003486  d :     0.029211
      dxz     :     0.004256
      dyz     :     0.003831
      dx2y2   :     0.010103
      dxy     :     0.007535
 13 C s       :     2.841446  s :     2.841446
      pz      :     1.050189  p :     2.889897
      px      :     0.762479
      py      :     1.077229
      dz2     :     0.028923  d :     0.147151
      dxz     :     0.033798
      dyz     :     0.016116
      dx2y2   :     0.047206
      dxy     :     0.021107
 14 C s       :     2.853683  s :     2.853683
      pz      :     0.884433  p :     2.906203
      px      :     1.043928
      py      :     0.977841
      dz2     :     0.044987  d :     0.163255
      dxz     :     0.027182
      dyz     :     0.038725
      dx2y2   :     0.033870
      dxy     :     0.018491
 15 O s       :     3.457557  s :     3.457557
      pz      :     1.582630  p :     4.714804
      px      :     1.381669
      py      :     1.750505
      dz2     :     0.007061  d :     0.023834
      dxz     :     0.002510
      dyz     :     0.005278
      dx2y2   :     0.008057
      dxy     :     0.000927
 16 C s       :     2.831011  s :     2.831011
      pz      :     1.059092  p :     2.985967
      px      :     0.980620
      py      :     0.946255
      dz2     :     0.020738  d :     0.128378
      dxz     :     0.012418
      dyz     :     0.027858
      dx2y2   :     0.040665
      dxy     :     0.026700
 17 N s       :     3.132174  s :     3.132174
      pz      :     1.144683  p :     3.968952
      px      :     1.641450
      py      :     1.182819
      dz2     :     0.011544  d :     0.053871
      dxz     :     0.006913
      dyz     :     0.017946
      dx2y2   :     0.006048
      dxy     :     0.011420
 18 C s       :     2.833687  s :     2.833687
      pz      :     0.982166  p :     2.984016
      px      :     1.053103
      py      :     0.948747
      dz2     :     0.026133  d :     0.145791
      dxz     :     0.022791
      dyz     :     0.041677
      dx2y2   :     0.025526
      dxy     :     0.029666
 19 C s       :     2.839956  s :     2.839956
      pz      :     1.038080  p :     3.111382
      px      :     1.046944
      py      :     1.026358
      dz2     :     0.014274  d :     0.082988
      dxz     :     0.011654
      dyz     :     0.023751
      dx2y2   :     0.019995
      dxy     :     0.013315
 20 C s       :     2.835936  s :     2.835936
      pz      :     1.018527  p :     3.115275
      px      :     1.045882
      py      :     1.050866
      dz2     :     0.015506  d :     0.082157
      dxz     :     0.014031
      dyz     :     0.023469
      dx2y2   :     0.014006
      dxy     :     0.015145
 21 H s       :     0.917514  s :     0.917514
      pz      :     0.013355  p :     0.065280
      px      :     0.043460
      py      :     0.008465
 22 H s       :     0.918907  s :     0.918907
      pz      :     0.016221  p :     0.063629
      px      :     0.018996
      py      :     0.028412
 23 H s       :     0.917233  s :     0.917233
      pz      :     0.046021  p :     0.065305
      px      :     0.010978
      py      :     0.008306
 24 H s       :     0.893757  s :     0.893757
      pz      :     0.017027  p :     0.071042
      px      :     0.017595
      py      :     0.036420
 25 H s       :     0.887464  s :     0.887464
      pz      :     0.014267  p :     0.071386
      px      :     0.016899
      py      :     0.040221
 26 H s       :     0.897149  s :     0.897149
      pz      :     0.012862  p :     0.068785
      px      :     0.045615
      py      :     0.010308
 27 H s       :     0.902626  s :     0.902626
      pz      :     0.017379  p :     0.068837
      px      :     0.021279
      py      :     0.030179
 28 H s       :     0.900200  s :     0.900200
      pz      :     0.017344  p :     0.067915
      px      :     0.016248
      py      :     0.034323
 29 H s       :     0.902199  s :     0.902199
      pz      :     0.015828  p :     0.071678
      px      :     0.043713
      py      :     0.012137
 30 H s       :     0.912580  s :     0.912580
      pz      :     0.012295  p :     0.065179
      px      :     0.008752
      py      :     0.044132
 31 H s       :     0.921298  s :     0.921298
      pz      :     0.038001  p :     0.067291
      px      :     0.011191
      py      :     0.018099
 32 H s       :     0.926261  s :     0.926261
      pz      :     0.010675  p :     0.066950
      px      :     0.017331
      py      :     0.038944
 33 H s       :     0.731564  s :     0.731564
      pz      :     0.038445  p :     0.181833
      px      :     0.096371
      py      :     0.047017
 34 H s       :     0.910518  s :     0.910518
      pz      :     0.035084  p :     0.065577
      px      :     0.015366
      py      :     0.015127
 35 H s       :     0.922127  s :     0.922127
      pz      :     0.025858  p :     0.063913
      px      :     0.012745
      py      :     0.025310
 36 H s       :     0.827009  s :     0.827009
      pz      :     0.058118  p :     0.127683
      px      :     0.043756
      py      :     0.025809
 37 H s       :     0.935700  s :     0.935700
      pz      :     0.012873  p :     0.068720
      px      :     0.040663
      py      :     0.015184
 38 H s       :     0.918968  s :     0.918968
      pz      :     0.022468  p :     0.065011
      px      :     0.012176
      py      :     0.030366
 39 H s       :     0.917412  s :     0.917412
      pz      :     0.012714  p :     0.065756
      px      :     0.039366
      py      :     0.013676
 40 H s       :     0.928005  s :     0.928005
      pz      :     0.033286  p :     0.064773
      px      :     0.016383
      py      :     0.015104
 41 H s       :     0.916333  s :     0.916333
      pz      :     0.019641  p :     0.066708
      px      :     0.021374
      py      :     0.025694
 42 H s       :     0.916227  s :     0.916227
      pz      :     0.022652  p :     0.064926
      px      :     0.012197
      py      :     0.030078
 43 H s       :     0.917899  s :     0.917899
      pz      :     0.012080  p :     0.065658
      px      :     0.037182
      py      :     0.016396


                      *****************************
                      * MAYER POPULATION ANALYSIS *
                      *****************************

  NA   - Mulliken gross atomic population
  ZA   - Total nuclear charge
  QA   - Mulliken gross atomic charge
  VA   - Mayer's total valence
  BVA  - Mayer's bonded valence
  FA   - Mayer's free valence

  ATOM       NA         ZA         QA         VA         BVA        FA
  0 C      5.7664     6.0000     0.2336     3.8254     3.8254     0.0000
  1 O      8.5459     8.0000    -0.5459     1.9178     1.9178    -0.0000
  2 C      5.4422     6.0000     0.5578     4.0423     4.0423    -0.0000
  3 O      8.4205     8.0000    -0.4205     2.0415     2.0415    -0.0000
  4 C      6.1998     6.0000    -0.1998     3.8440     3.8440    -0.0000
  5 C      5.8679     6.0000     0.1321     3.7827     3.7827    -0.0000
  6 C      6.1820     6.0000    -0.1820     3.8554     3.8554     0.0000
  7 C      5.9867     6.0000     0.0133     3.9331     3.9331    -0.0000
  8 C      6.0626     6.0000    -0.0626     3.8763     3.8763     0.0000
  9 C      5.9915     6.0000     0.0085     3.8679     3.8679     0.0000
 10 C      6.1504     6.0000    -0.1504     3.8572     3.8572     0.0000
 11 C      5.6295     6.0000     0.3705     3.7998     3.7998     0.0000
 12 O      8.5916     8.0000    -0.5916     1.8754     1.8754    -0.0000
 13 C      5.7220     6.0000     0.2780     3.7621     3.7621     0.0000
 14 C      5.8608     6.0000     0.1392     3.8425     3.8425    -0.0000
 15 O      8.4619     8.0000    -0.4619     1.9074     1.9074    -0.0000
 16 C      5.8251     6.0000     0.1749     3.8875     3.8875    -0.0000
 17 N      7.4792     7.0000    -0.4792     2.8562     2.8562    -0.0000
 18 C      6.0155     6.0000    -0.0155     3.9438     3.9438    -0.0000
 19 C      6.0002     6.0000    -0.0002     3.9103     3.9103    -0.0000
 20 C      6.0088     6.0000    -0.0088     3.9086     3.9086     0.0000
 21 H      0.9535     1.0000     0.0465     0.9895     0.9895     0.0000
 22 H      0.9580     1.0000     0.0420     0.9848     0.9848    -0.0000
 23 H      0.9528     1.0000     0.0472     0.9896     0.9896     0.0000
 24 H      0.9332     1.0000     0.0668     1.0067     1.0067    -0.0000
 25 H      0.9122     1.0000     0.0878     1.0079     1.0079    -0.0000
 26 H      0.9492     1.0000     0.0508     0.9959     0.9959    -0.0000
 27 H      0.9557     1.0000     0.0443     0.9865     0.9865     0.0000
 28 H      0.9509     1.0000     0.0491     0.9856     0.9856    -0.0000
 29 H      0.9589     1.0000     0.0411     0.9910     0.9910     0.0000
 30 H      0.9513     1.0000     0.0487     1.0000     1.0000    -0.0000
 31 H      0.9592     1.0000     0.0408     0.9860     0.9860    -0.0000
 32 H      0.9698     1.0000     0.0302     0.9840     0.9840    -0.0000
 33 H      0.7894     1.0000     0.2106     0.9926     0.9926    -0.0000
 34 H      0.9480     1.0000     0.0520     0.9917     0.9917     0.0000
 35 H      0.9735     1.0000     0.0265     0.9821     0.9821    -0.0000
 36 H      0.8815     1.0000     0.1185     0.9854     0.9854     0.0000
 37 H      0.9654     1.0000     0.0346     0.9769     0.9769    -0.0000
 38 H      0.9728     1.0000     0.0272     0.9838     0.9838    -0.0000
 39 H      0.9676     1.0000     0.0324     0.9886     0.9886     0.0000
 40 H      0.9864     1.0000     0.0136     0.9830     0.9830     0.0000
 41 H      0.9558     1.0000     0.0442     0.9893     0.9893     0.0000
 42 H      0.9737     1.0000     0.0263     0.9851     0.9851     0.0000
 43 H      0.9709     1.0000     0.0291     0.9863     0.9863     0.0000

  Mayer bond orders larger than 0.100000
B(  0-C ,  1-O ) :   0.8286 B(  0-C , 21-H ) :   0.9910 B(  0-C , 22-H ) :   0.9930 
B(  0-C , 23-H ) :   0.9911 B(  1-O ,  2-C ) :   1.0799 B(  2-C ,  3-O ) :   1.9442 
B(  2-C ,  4-C ) :   1.0403 B(  4-C ,  5-C ) :   1.8367 B(  4-C , 24-H ) :   0.9855 
B(  5-C ,  6-C ) :   1.0001 B(  5-C , 25-H ) :   0.9663 B(  6-C ,  7-C ) :   1.4353 
B(  6-C , 11-C ) :   1.3983 B(  7-C ,  8-C ) :   1.4137 B(  7-C , 26-H ) :   1.0012 
B(  8-C ,  9-C ) :   1.4238 B(  8-C , 27-H ) :   1.0012 B(  9-C , 10-C ) :   1.3916 
B(  9-C , 28-H ) :   0.9976 B( 10-C , 11-C ) :   1.3738 B( 10-C , 29-H ) :   1.0041 
B( 11-C , 12-O ) :   0.9925 B( 12-O , 13-C ) :   0.8264 B( 13-C , 14-C ) :   0.9944 
B( 13-C , 30-H ) :   0.9646 B( 13-C , 31-H ) :   0.9784 B( 14-C , 15-O ) :   0.9098 
B( 14-C , 16-C ) :   0.9928 B( 14-C , 32-H ) :   0.9674 B( 15-O , 33-H ) :   0.9598 
B( 16-C , 17-N ) :   1.0012 B( 16-C , 34-H ) :   0.9771 B( 16-C , 35-H ) :   0.9807 
B( 17-N , 18-C ) :   0.9303 B( 17-N , 36-H ) :   0.9598 B( 18-C , 19-C ) :   1.0317 
B( 18-C , 20-C ) :   1.0280 B( 18-C , 37-H ) :   0.9618 B( 19-C , 38-H ) :   0.9865 
B( 19-C , 39-H ) :   0.9788 B( 19-C , 40-H ) :   0.9855 B( 20-C , 41-H ) :   0.9827 
B( 20-C , 42-H ) :   0.9851 B( 20-C , 43-H ) :   0.9774 

-------
TIMINGS
-------

Total SCF time: 0 days 0 hours 0 min 19 sec 

Total time                  ....      19.779 sec
Sum of individual times     ....      19.455 sec  ( 98.4%)

Fock matrix formation       ....      18.475 sec  ( 93.4%)
Diagonalization             ....       0.274 sec  (  1.4%)
Density matrix formation    ....       0.021 sec  (  0.1%)
Population analysis         ....       0.035 sec  (  0.2%)
Initial guess               ....       0.137 sec  (  0.7%)
Orbital Transformation      ....       0.000 sec  (  0.0%)
Orbital Orthonormalization  ....       0.000 sec  (  0.0%)
DIIS solution               ....       0.131 sec  (  0.7%)
SOSCF solution              ....       0.194 sec  (  1.0%)

Maximum memory used throughout the entire SCF-calculation: 240.3 MB

-------------------------   --------------------
FINAL SINGLE POINT ENERGY      -972.423255368288
-------------------------   --------------------


                            ***************************************
                            *     ORCA property calculations      *
                            ***************************************

                                    ---------------------
                                    Active property flags
                                    ---------------------
   (+) Dipole Moment


------------------------------------------------------------------------------
                       ORCA ELECTRIC PROPERTIES CALCULATION
------------------------------------------------------------------------------

Dipole Moment Calculation                       ... on
Quadrupole Moment Calculation                   ... off
Polarizability Calculation                      ... off
GBWName                                         ... ./ZINC000000000150/ZINC000000000150.gbw
Electron density                                ... ./ZINC000000000150/ZINC000000000150.scfp
The origin for moment calculation is the CENTER OF MASS  = ( 1.286976, -0.270574  0.020540)

-------------
DIPOLE MOMENT
-------------
                                X             Y             Z
Electronic contribution:     28.61991      -7.98192       4.95229
Nuclear contribution   :    -29.15967       7.73326      -3.64543
                        -----------------------------------------
Total Dipole Moment    :     -0.53976      -0.24866       1.30686
                        -----------------------------------------
Magnitude (a.u.)       :      1.43564
Magnitude (Debye)      :      3.64910



--------------------
Rotational spectrum 
--------------------
 
Rotational constants in cm-1:     0.011674     0.004726     0.003594 
Rotational constants in MHz :   349.992606   141.696192   107.735883 

 Dipole components along the rotational axes: 
x,y,z [a.u.] :    -0.442560    -0.881458     1.043183 
x,y,z [Debye]:    -1.124898    -2.240489     2.651559 

 

Timings for individual modules:

Sum of individual times         ...       20.469 sec (=   0.341 min)
GTO integral calculation        ...        0.437 sec (=   0.007 min)   2.1 %
SCF iterations                  ...       20.032 sec (=   0.334 min)  97.9 %
                             ****ORCA TERMINATED NORMALLY****
TOTAL RUN TIME: 0 days 0 hours 0 minutes 20 seconds 841 msec
