
                                 *****************
                                 * O   R   C   A *
                                 *****************

                                            #,                                       
                                            ###                                      
                                            ####                                     
                                            #####                                    
                                            ######                                   
                                           ########,                                 
                                     ,,################,,,,,                         
                               ,,#################################,,                 
                          ,,##########################################,,             
                       ,#########################################, ''#####,          
                    ,#############################################,,   '####,        
                  ,##################################################,,,,####,       
                ,###########''''           ''''###############################       
              ,#####''   ,,,,##########,,,,          '''####'''          '####       
            ,##' ,,,,###########################,,,                        '##       
           ' ,,###''''                  '''############,,,                           
         ,,##''                                '''############,,,,        ,,,,,,###''
      ,#''                                            '''#######################'''  
     '                                                          ''''####''''         
             ,#######,   #######,   ,#######,      ##                                
            ,#'     '#,  ##    ##  ,#'     '#,    #''#        ######   ,####,        
            ##       ##  ##   ,#'  ##            #'  '#       #        #'  '#        
            ##       ##  #######   ##           ,######,      #####,   #    #        
            '#,     ,#'  ##    ##  '#,     ,#' ,#      #,         ##   #,  ,#        
             '#######'   ##     ##  '#######'  #'      '#     #####' # '####'        



                  #######################################################
                  #                        -***-                        #
                  #          Department of theory and spectroscopy      #
                  #    Directorship and core code : Frank Neese         #
                  #        Max Planck Institute fuer Kohlenforschung    #
                  #                Kaiser Wilhelm Platz 1               #
                  #                 D-45470 Muelheim/Ruhr               #
                  #                      Germany                        #
                  #                                                     #
                  #                  All rights reserved                #
                  #                        -***-                        #
                  #######################################################


                         Program Version 5.0.3 -  RELEASE  -


 With contributions from (in alphabetic order):
   Daniel Aravena         : Magnetic Suceptibility
   Michael Atanasov       : Ab Initio Ligand Field Theory (pilot matlab implementation)
   Alexander A. Auer      : GIAO ZORA, VPT2 properties, NMR spectrum
   Ute Becker             : Parallelization
   Giovanni Bistoni       : ED, misc. LED, open-shell LED, HFLD
   Martin Brehm           : Molecular dynamics
   Dmytro Bykov           : SCF Hessian
   Vijay G. Chilkuri      : MRCI spin determinant printing, contributions to CSF-ICE
   Dipayan Datta          : RHF DLPNO-CCSD density
   Achintya Kumar Dutta   : EOM-CC, STEOM-CC
   Dmitry Ganyushin       : Spin-Orbit,Spin-Spin,Magnetic field MRCI
   Miquel Garcia          : C-PCM and meta-GGA Hessian, CC/C-PCM, Gaussian charge scheme
   Yang Guo               : DLPNO-NEVPT2, F12-NEVPT2, CIM, IAO-localization
   Andreas Hansen         : Spin unrestricted coupled pair/coupled cluster methods
   Benjamin Helmich-Paris : MC-RPA, TRAH-SCF, COSX integrals
   Lee Huntington         : MR-EOM, pCC
   Robert Izsak           : Overlap fitted RIJCOSX, COSX-SCS-MP3, EOM
   Marcus Kettner         : VPT2
   Christian Kollmar      : KDIIS, OOCD, Brueckner-CCSD(T), CCSD density, CASPT2, CASPT2-K
   Simone Kossmann        : Meta GGA functionals, TD-DFT gradient, OOMP2, MP2 Hessian
   Martin Krupicka        : Initial AUTO-CI
   Lucas Lang             : DCDCAS
   Marvin Lechner         : AUTO-CI (C++ implementation), FIC-MRCC
   Dagmar Lenk            : GEPOL surface, SMD
   Dimitrios Liakos       : Extrapolation schemes; Compound Job, initial MDCI parallelization
   Dimitrios Manganas     : Further ROCIS development; embedding schemes
   Dimitrios Pantazis     : SARC Basis sets
   Anastasios Papadopoulos: AUTO-CI, single reference methods and gradients
   Taras Petrenko         : DFT Hessian,TD-DFT gradient, ASA, ECA, R-Raman, ABS, FL, XAS/XES, NRVS
   Peter Pinski           : DLPNO-MP2, DLPNO-MP2 Gradient
   Christoph Reimann      : Effective Core Potentials
   Marius Retegan         : Local ZFS, SOC
   Christoph Riplinger    : Optimizer, TS searches, QM/MM, DLPNO-CCSD(T), (RO)-DLPNO pert. Triples
   Tobias Risthaus        : Range-separated hybrids, TD-DFT gradient, RPA, STAB
   Michael Roemelt        : Original ROCIS implementation
   Masaaki Saitow         : Open-shell DLPNO-CCSD energy and density
   Barbara Sandhoefer     : DKH picture change effects
   Avijit Sen             : IP-ROCIS
   Kantharuban Sivalingam : CASSCF convergence, NEVPT2, FIC-MRCI
   Bernardo de Souza      : ESD, SOC TD-DFT
   Georgi Stoychev        : AutoAux, RI-MP2 NMR, DLPNO-MP2 response
   Willem Van den Heuvel  : Paramagnetic NMR
   Boris Wezisla          : Elementary symmetry handling
   Frank Wennmohs         : Technical directorship


 We gratefully acknowledge several colleagues who have allowed us to
 interface, adapt or use parts of their codes:
   Stefan Grimme, W. Hujo, H. Kruse, P. Pracht,  : VdW corrections, initial TS optimization,
                  C. Bannwarth, S. Ehlert          DFT functionals, gCP, sTDA/sTD-DF
   Ed Valeev, F. Pavosevic, A. Kumar             : LibInt (2-el integral package), F12 methods
   Garnet Chan, S. Sharma, J. Yang, R. Olivares  : DMRG
   Ulf Ekstrom                                   : XCFun DFT Library
   Mihaly Kallay                                 : mrcc  (arbitrary order and MRCC methods)
   Jiri Pittner, Ondrej Demel                    : Mk-CCSD
   Frank Weinhold                                : gennbo (NPA and NBO analysis)
   Christopher J. Cramer and Donald G. Truhlar   : smd solvation model
   Lars Goerigk                                  : TD-DFT with DH, B97 family of functionals
   V. Asgeirsson, H. Jonsson                     : NEB implementation
   FAccTs GmbH                                   : IRC, NEB, NEB-TS, DLPNO-Multilevel, CI-OPT
                                                   MM, QMMM, 2- and 3-layer-ONIOM, Crystal-QMMM,
                                                   LR-CPCM, SF, NACMEs, symmetry and pop. for TD-DFT,
                                                   nearIR, NL-DFT gradient (VV10), updates on ESD,
                                                   ML-optimized integration grids
   S Lehtola, MJT Oliveira, MAL Marques          : LibXC Library
   Liviu Ungur et al                             : ANISO software


 Your calculation uses the libint2 library for the computation of 2-el integrals
 For citations please refer to: http://libint.valeyev.net

 Your ORCA version has been built with support for libXC version: 5.1.0
 For citations please refer to: https://tddft.org/programs/libxc/

 This ORCA versions uses:
   CBLAS   interface :  Fast vector & matrix operations
   LAPACKE interface :  Fast linear algebra routines
   SCALAPACK package :  Parallel linear algebra routines
   Shared memory     :  Shared parallel matrices
   BLAS/LAPACK       :  OpenBLAS 0.3.15  USE64BITINT DYNAMIC_ARCH NO_AFFINITY Zen SINGLE_THREADED
        Core in use  :  Zen
   Copyright (c) 2011-2014, The OpenBLAS Project


================================================================================

----- Orbital basis set information -----
Your calculation utilizes the basis: def2-SVP
   F. Weigend and R. Ahlrichs, Phys. Chem. Chem. Phys. 7, 3297 (2005).

================================================================================
                                        WARNINGS
                       Please study these warnings very carefully!
================================================================================


INFO   : the flag for use of the SHARK integral package has been found!

================================================================================
                                       INPUT FILE
================================================================================
NAME = ./ZINC000000000023/ZINC000000000023.inp
|  1> !RHF def2-SVP TightSCF PAL16 
|  2> *xyz 0 1
|  3> C -4.6724603947817105 2.2207946473731863 -2.168716167562279
|  4> C -3.702300349816882 1.5470325683641015 -1.5368045195316484
|  5> C -3.766123934893417 1.1103515937254895 -0.09915767266161338
|  6> C -3.644713196771059 -0.39144352613293754 0.050639146781099764
|  7> C -4.808829959082994 -1.1770174787488317 -0.021433842887743873
|  8> C -4.74016790298992 -2.563470918809059 0.0953619390364232
|  9> C -3.507454628809886 -3.1808639629098705 0.27874409760166957
| 10> C -2.3403504138591007 -2.4149429007101264 0.34126494683501823
| 11> C -2.3973420142740256 -1.0218467575136163 0.22421807221801135
| 12> O -1.3080329580782837 -0.1917632864381308 0.2639122035531
| 13> C -0.0159945292960403 -0.7938185919844252 0.40801739307978774
| 14> C 1.0188855800319592 0.33758722960056686 0.4047920386809227
| 15> O 0.9675950388782775 1.0200267421858535 -0.8619667204691311
| 16> C 2.4399531545110325 -0.21301996683148555 0.6180339230360756
| 17> N 3.4014381710236727 0.8951075433543845 0.680716074809016
| 18> C 4.797734619980011 0.4551661109099299 0.720094788133323
| 19> C 5.305719966426124 0.0029134060025466954 -0.6504710147668316
| 20> C 5.64053824892299 1.6298402814693522 1.2205753109201163
| 21> H -5.594234763281141 2.4997712418338165 -1.6682072292773913
| 22> H -4.5605011369209745 2.5059382758419355 -3.2103574359926172
| 23> H -2.796152588149066 1.2916415710992317 -2.0823406666255346
| 24> H -4.703249579037634 1.4408219073874384 0.36811253225942275
| 25> H -2.973456932605072 1.616125545455227 0.4650531987330772
| 26> H -5.776825729456962 -0.7042580688290452 -0.1743434155967714
| 27> H -5.647007046180967 -3.159826216777607 0.03945648358448211
| 28> H -3.4515532998171676 -4.262749587407571 0.36880136487258064
| 29> H -1.402241661945124 -2.9414359969869666 0.47949031534979847
| 30> H 0.03926112618571643 -1.3427860984102735 1.355046012334119
| 31> H 0.16847718186825927 -1.4624154204483464 -0.44155020023241787
| 32> H 0.7681575705953319 1.0753981968188435 1.1766629181632553
| 33> H 0.031464317081163026 1.2680902777821372 -0.9847145080679635
| 34> H 2.68428632070528 -0.8801208994367051 -0.2156810353652176
| 35> H 2.4808231911173917 -0.787896635745915 1.5498731989321506
| 36> H 3.2369838927592554 1.498349954367901 -0.1308178967605481
| 37> H 4.911815618896975 -0.365661874160492 1.438821521894938
| 38> H 5.189664513348086 0.792074367135054 -1.401883572663504
| 39> H 6.369431574234643 -0.25472548483538354 -0.5999520707404383
| 40> H 4.774005838127684 -0.8845690018422947 -1.006785195334654
| 41> H 6.694327681345694 1.3419910180025032 1.3031478902560176
| 42> H 5.579249474243569 2.489351536232069 0.543150403219133
| 43> H 5.309179939763433 1.9562586600160687 2.212901214124229
| 44> *
| 45> 
| 46>                          ****END OF INPUT****
================================================================================

                       ****************************
                       * Single Point Calculation *
                       ****************************

---------------------------------
CARTESIAN COORDINATES (ANGSTROEM)
---------------------------------
  C     -4.672460    2.220795   -2.168716
  C     -3.702300    1.547033   -1.536805
  C     -3.766124    1.110352   -0.099158
  C     -3.644713   -0.391444    0.050639
  C     -4.808830   -1.177017   -0.021434
  C     -4.740168   -2.563471    0.095362
  C     -3.507455   -3.180864    0.278744
  C     -2.340350   -2.414943    0.341265
  C     -2.397342   -1.021847    0.224218
  O     -1.308033   -0.191763    0.263912
  C     -0.015995   -0.793819    0.408017
  C      1.018886    0.337587    0.404792
  O      0.967595    1.020027   -0.861967
  C      2.439953   -0.213020    0.618034
  N      3.401438    0.895108    0.680716
  C      4.797735    0.455166    0.720095
  C      5.305720    0.002913   -0.650471
  C      5.640538    1.629840    1.220575
  H     -5.594235    2.499771   -1.668207
  H     -4.560501    2.505938   -3.210357
  H     -2.796153    1.291642   -2.082341
  H     -4.703250    1.440822    0.368113
  H     -2.973457    1.616126    0.465053
  H     -5.776826   -0.704258   -0.174343
  H     -5.647007   -3.159826    0.039456
  H     -3.451553   -4.262750    0.368801
  H     -1.402242   -2.941436    0.479490
  H      0.039261   -1.342786    1.355046
  H      0.168477   -1.462415   -0.441550
  H      0.768158    1.075398    1.176663
  H      0.031464    1.268090   -0.984715
  H      2.684286   -0.880121   -0.215681
  H      2.480823   -0.787897    1.549873
  H      3.236984    1.498350   -0.130818
  H      4.911816   -0.365662    1.438822
  H      5.189665    0.792074   -1.401884
  H      6.369432   -0.254725   -0.599952
  H      4.774006   -0.884569   -1.006785
  H      6.694328    1.341991    1.303148
  H      5.579249    2.489352    0.543150
  H      5.309180    1.956259    2.212901

----------------------------
CARTESIAN COORDINATES (A.U.)
----------------------------
  NO LB      ZA    FRAG     MASS         X           Y           Z
   0 C     6.0000    0    12.011   -8.829671    4.196694   -4.098280
   1 C     6.0000    0    12.011   -6.996334    2.923468   -2.904140
   2 C     6.0000    0    12.011   -7.116943    2.098260   -0.187381
   3 C     6.0000    0    12.011   -6.887510   -0.739721    0.095694
   4 C     6.0000    0    12.011   -9.087372   -2.224241   -0.040504
   5 C     6.0000    0    12.011   -8.957619   -4.844258    0.180208
   6 C     6.0000    0    12.011   -6.628129   -6.010962    0.526750
   7 C     6.0000    0    12.011   -4.422621   -4.563581    0.644897
   8 C     6.0000    0    12.011   -4.530320   -1.931011    0.423711
   9 O     8.0000    0    15.999   -2.471824   -0.362380    0.498722
  10 C     6.0000    0    12.011   -0.030225   -1.500100    0.771041
  11 C     6.0000    0    12.011    1.925415    0.637947    0.764946
  12 O     8.0000    0    15.999    1.828490    1.927571   -1.628881
  13 C     6.0000    0    12.011    4.610843   -0.402549    1.167915
  14 N     7.0000    0    14.007    6.427787    1.691508    1.286367
  15 C     6.0000    0    12.011    9.066404    0.860139    1.360782
  16 C     6.0000    0    12.011   10.026358    0.005506   -1.229212
  17 C     6.0000    0    12.011   10.659073    3.079952    2.306553
  18 H     1.0000    0     1.008  -10.571572    4.723883   -3.152455
  19 H     1.0000    0     1.008   -8.618098    4.735537   -6.066696
  20 H     1.0000    0     1.008   -5.283963    2.440849   -3.935054
  21 H     1.0000    0     1.008   -8.887854    2.722759    0.695632
  22 H     1.0000    0     1.008   -5.619019    3.054035    0.878823
  23 H     1.0000    0     1.008  -10.916619   -1.330855   -0.329461
  24 H     1.0000    0     1.008  -10.671297   -5.971206    0.074562
  25 H     1.0000    0     1.008   -6.522490   -8.055429    0.696934
  26 H     1.0000    0     1.008   -2.649853   -5.558508    0.906105
  27 H     1.0000    0     1.008    0.074193   -2.537498    2.560666
  28 H     1.0000    0     1.008    0.318376   -2.763565   -0.834409
  29 H     1.0000    0     1.008    1.451607    2.032208    2.223571
  30 H     1.0000    0     1.008    0.059459    2.396343   -1.860841
  31 H     1.0000    0     1.008    5.072566   -1.663187   -0.407578
  32 H     1.0000    0     1.008    4.688076   -1.488909    2.928836
  33 H     1.0000    0     1.008    6.117013    2.831471   -0.247210
  34 H     1.0000    0     1.008    9.281986   -0.691001    2.718979
  35 H     1.0000    0     1.008    9.807045    1.496804   -2.649176
  36 H     1.0000    0     1.008   12.036481   -0.481361   -1.133745
  37 H     1.0000    0     1.008    9.021564   -1.671593   -1.902548
  38 H     1.0000    0     1.008   12.650446    2.535995    2.462593
  39 H     1.0000    0     1.008   10.543254    4.704193    1.026406
  40 H     1.0000    0     1.008   10.032896    3.696793    4.181777

--------------------------------
INTERNAL COORDINATES (ANGSTROEM)
--------------------------------
 C      0   0   0     0.000000000000     0.00000000     0.00000000
 C      1   0   0     1.339581346120     0.00000000     0.00000000
 C      2   1   0     1.503859095773   124.49022907     0.00000000
 C      3   2   1     1.514122926475   112.28311982   120.65773471
 C      4   3   2     1.406232124211   118.85788880   272.45106386
 C      5   4   3     1.393057383627   120.72310042   179.23486183
 C      6   5   4     1.390821772667   119.77142128   359.68147265
 C      7   6   5     1.397381901509   120.18880736   359.78155672
 C      8   7   6     1.399165779157   120.52875805     0.17394608
 O      9   8   7     1.370112554838   124.63972500   180.47757444
 C     10   9   8     1.432689847118   117.73076700     1.34308785
 C     11  10   9     1.533318745959   107.36029835   179.22212227
 O     12  11  10     1.439802820470   109.12007551   297.58113956
 C     12  11  10     1.538854586126   111.03636283   177.50223137
 N     14  12  11     1.468444438159   109.91066099   182.93810870
 C     15  14  12     1.464494083434   113.49866763   186.97038932
 C     16  15  14     1.530043215527   112.41140550    76.63859925
 C     16  15  14     1.529920951431   107.66027134   197.56632269
 H      1   2   3     1.085359444600   121.79071236   359.82849346
 H      1   2   3     1.085752410255   120.66174333   179.97517297
 H      2   1   3     1.088089157765   118.99100089   180.23914463
 H      3   2   1     1.098069462981   110.83219012   358.54842398
 H      3   2   1     1.096568362741   109.10269756   243.38387854
 H      5   4   3     1.088071049406   120.06284831   359.50804406
 H      6   5   4     1.086794503569   120.04547262   179.91166354
 H      7   6   5     1.087065671644   119.88701632   180.08044955
 H      8   7   6     1.084596359641   117.51860318   180.35364048
 H     11  10   9     1.096029979636   110.05082241   298.58768776
 H     11  10   9     1.096729969891   109.26604541    60.48937794
 H     12  11  10     1.096820045703   109.91300454    54.61267890
 H     13  12  11     0.976188130099   105.38100857    53.15021072
 H     14  12  11     1.095355185430   108.56794686    62.28081527
 H     14  12  11     1.095663260522   109.87885753   303.60724617
 H     15  14  12     1.024467668156   107.78401905   309.76872947
 H     16  15  14     1.096969084894   109.97163924   314.56189852
 H     17  16  15     1.095839734144   111.48162415    56.45546054
 H     17  16  15     1.095633308349   110.52015812   176.18259314
 H     17  16  15     1.094214208343   111.72162943   295.48358063
 H     18  16  15     1.095512481546   110.65958030   177.98676380
 H     18  16  15     1.096093251753   111.65998325   298.12537602
 H     18  16  15     1.095927910527   110.99764149    58.70402346

---------------------------
INTERNAL COORDINATES (A.U.)
---------------------------
 C      0   0   0     0.000000000000     0.00000000     0.00000000
 C      1   0   0     2.531441878277     0.00000000     0.00000000
 C      2   1   0     2.841881835017   124.49022907     0.00000000
 C      3   2   1     2.861277664129   112.28311982   120.65773471
 C      4   3   2     2.657393595482   118.85788880   272.45106386
 C      5   4   3     2.632496943891   120.72310042   179.23486183
 C      6   5   4     2.628272251435   119.77142128   359.68147265
 C      7   6   5     2.640669098351   120.18880736   359.78155672
 C      8   7   6     2.644040138562   120.52875805     0.17394608
 O      9   8   7     2.589137501291   124.63972500   180.47757444
 C     10   9   8     2.707391445903   117.73076700     1.34308785
 C     11  10   9     2.897552505871   107.36029835   179.22212227
 O     12  11  10     2.720833017535   109.12007551   297.58113956
 C     12  11  10     2.908013727707   111.03636283   177.50223137
 N     14  12  11     2.774957831000   109.91066099   182.93810870
 C     15  14  12     2.767492742438   113.49866763   186.97038932
 C     16  15  14     2.891362650410   112.41140550    76.63859925
 C     16  15  14     2.891131604753   107.66027134   197.56632269
 H      1   2   3     2.051032107159   121.79071236   359.82849346
 H      1   2   3     2.051774704627   120.66174333   179.97517297
 H      2   1   3     2.056190517465   118.99100089   180.23914463
 H      3   2   1     2.075050561056   110.83219012   358.54842398
 H      3   2   1     2.072213892703   109.10269756   243.38387854
 H      5   4   3     2.056156297626   120.06284831   359.50804406
 H      6   5   4     2.053743975596   120.04547262   179.91166354
 H      7   6   5     2.054256408994   119.88701632   180.08044955
 H      8   7   6     2.049590085569   117.51860318   180.35364048
 H     11  10   9     2.071196496079   110.05082241   298.58768776
 H     11  10   9     2.072519285959   109.26604541    60.48937794
 H     12  11  10     2.072689504574   109.91300454    54.61267890
 H     13  12  11     1.844728221071   105.38100857    53.15021072
 H     14  12  11     2.069921319832   108.56794686    62.28081527
 H     14  12  11     2.070503497385   109.87885753   303.60724617
 H     15  14  12     1.935963325871   107.78401905   309.76872947
 H     16  15  14     2.072971147827   109.97163924   314.56189852
 H     17  16  15     2.070836984202   111.48162415    56.45546054
 H     17  16  15     2.070446895982   110.52015812   176.18259314
 H     17  16  15     2.067765185614   111.72162943   295.48358063
 H     18  16  15     2.070218566414   110.65958030   177.98676380
 H     18  16  15     2.071316063053   111.65998325   298.12537602
 H     18  16  15     2.071003613417   110.99764149    58.70402346

---------------------
BASIS SET INFORMATION
---------------------
There are 4 groups of distinct atoms

 Group   1 Type C   : 7s4p1d contracted to 3s2p1d pattern {511/31/1}
 Group   2 Type O   : 7s4p1d contracted to 3s2p1d pattern {511/31/1}
 Group   3 Type N   : 7s4p1d contracted to 3s2p1d pattern {511/31/1}
 Group   4 Type H   : 4s1p contracted to 2s1p pattern {31/1}

Atom   0C    basis set group =>   1
Atom   1C    basis set group =>   1
Atom   2C    basis set group =>   1
Atom   3C    basis set group =>   1
Atom   4C    basis set group =>   1
Atom   5C    basis set group =>   1
Atom   6C    basis set group =>   1
Atom   7C    basis set group =>   1
Atom   8C    basis set group =>   1
Atom   9O    basis set group =>   2
Atom  10C    basis set group =>   1
Atom  11C    basis set group =>   1
Atom  12O    basis set group =>   2
Atom  13C    basis set group =>   1
Atom  14N    basis set group =>   3
Atom  15C    basis set group =>   1
Atom  16C    basis set group =>   1
Atom  17C    basis set group =>   1
Atom  18H    basis set group =>   4
Atom  19H    basis set group =>   4
Atom  20H    basis set group =>   4
Atom  21H    basis set group =>   4
Atom  22H    basis set group =>   4
Atom  23H    basis set group =>   4
Atom  24H    basis set group =>   4
Atom  25H    basis set group =>   4
Atom  26H    basis set group =>   4
Atom  27H    basis set group =>   4
Atom  28H    basis set group =>   4
Atom  29H    basis set group =>   4
Atom  30H    basis set group =>   4
Atom  31H    basis set group =>   4
Atom  32H    basis set group =>   4
Atom  33H    basis set group =>   4
Atom  34H    basis set group =>   4
Atom  35H    basis set group =>   4
Atom  36H    basis set group =>   4
Atom  37H    basis set group =>   4
Atom  38H    basis set group =>   4
Atom  39H    basis set group =>   4
Atom  40H    basis set group =>   4


           ************************************************************
           *        Program running with 16 parallel MPI-processes    *
           *              working on a common directory               *
           ************************************************************
------------------------------------------------------------------------------
                           ORCA GTO INTEGRAL CALCULATION
------------------------------------------------------------------------------
------------------------------------------------------------------------------
                   ___                                                        
                  /   \      - P O W E R E D   B Y -                         
                 /     \                                                     
                 |  |  |   _    _      __       _____    __    __             
                 |  |  |  | |  | |    /  \     |  _  \  |  |  /  |          
                  \  \/   | |  | |   /    \    | | | |  |  | /  /          
                 / \  \   | |__| |  /  /\  \   | |_| |  |  |/  /          
                |  |  |   |  __  | /  /__\  \  |    /   |      \           
                |  |  |   | |  | | |   __   |  |    \   |  |\   \          
                \     /   | |  | | |  |  |  |  | |\  \  |  | \   \       
                 \___/    |_|  |_| |__|  |__|  |_| \__\ |__|  \__/        
                                                                              
                      - O R C A' S   B I G   F R I E N D -                    
                                      &                                       
                       - I N T E G R A L  F E E D E R -                       
                                                                              
 v1 FN, 2020, v2 2021                                                         
------------------------------------------------------------------------------


Reading SHARK input file ./ZINC000000000023/ZINC000000000023.SHARKINP.tmp ... ok
----------------------
SHARK INTEGRAL PACKAGE
----------------------

Number of atoms                             ...     41
Number of basis functions                   ...    367
Number of shells                            ...    177
Maximum angular momentum                    ...      2
Integral batch strategy                     ... SHARK/LIBINT Hybrid
RI-J (if used) integral strategy            ... SPLIT-RIJ (Revised 2003 algorithm where possible)
Printlevel                                  ...      1
Contraction scheme used                     ... SEGMENTED contraction
Coulomb Range Separation                    ... NOT USED
Exchange Range Separation                   ... NOT USED
Finite Nucleus Model                        ... NOT USED
Auxiliary Coulomb fitting basis             ... NOT available
Auxiliary J/K fitting basis                 ... NOT available
Auxiliary Correlation fitting basis         ... NOT available
Auxiliary 'external' fitting basis          ... NOT available
Integral threshold                          ...     2.500000e-11
Primitive cut-off                           ...     2.500000e-12
Primitive pair pre-selection threshold      ...     2.500000e-12

Calculating pre-screening integrals         ... done (  0.0 sec) Dimension = 177
Organizing shell pair data                  ... done (  0.0 sec)
Shell pair information
Total number of shell pairs                 ...     15753
Shell pairs after pre-screening             ...     10610
Total number of primitive shell pairs       ...     55249
Primitive shell pairs kept                  ...     24554
          la=0 lb=0:   3569 shell pairs
          la=1 lb=0:   4013 shell pairs
          la=1 lb=1:   1167 shell pairs
          la=2 lb=0:   1134 shell pairs
          la=2 lb=1:    632 shell pairs
          la=2 lb=2:     95 shell pairs

Calculating one electron integrals          ... done (  0.0 sec)
Calculating Nuclear repulsion               ... done (  0.0 sec) ENN=   1278.717219689799 Eh

SHARK setup successfully completed in   0.2 seconds

Maximum memory used throughout the entire GTOINT-calculation: 16.2 MB


           ************************************************************
           *        Program running with 16 parallel MPI-processes    *
           *              working on a common directory               *
           ************************************************************
-------------------------------------------------------------------------------
                                 ORCA SCF
-------------------------------------------------------------------------------

------------
SCF SETTINGS
------------
Hamiltonian:
 Ab initio Hamiltonian  Method          .... Hartree-Fock(GTOs)


General Settings:
 Integral files         IntName         .... ./ZINC000000000023/ZINC000000000023
 Hartree-Fock type      HFTyp           .... RHF
 Total Charge           Charge          ....    0
 Multiplicity           Mult            ....    1
 Number of Electrons    NEL             ....  136
 Basis Dimension        Dim             ....  367
 Nuclear Repulsion      ENuc            ....   1278.7172196898 Eh

Convergence Acceleration:
 DIIS                   CNVDIIS         .... on
   Start iteration      DIISMaxIt       ....    12
   Startup error        DIISStart       ....  0.200000
   # of expansion vecs  DIISMaxEq       ....     5
   Bias factor          DIISBfac        ....   1.050
   Max. coefficient     DIISMaxC        ....  10.000
 Trust-Rad. Augm. Hess. CNVTRAH         .... auto
   Auto Start mean grad. ratio tolernc. ....  1.125000
   Auto Start start iteration           ....    20
   Auto Start num. interpolation iter.  ....    10
   Max. Number of Micro iterations      ....    16
   Max. Number of Macro iterations      .... Maxiter - #DIIS iter
   Number of Davidson start vectors     ....     2
   Converg. threshold I  (grad. norm)   ....   1.000e-05
   Converg. threshold II (energy diff.) ....   1.000e-08
   Grad. Scal. Fac. for Micro threshold ....   0.100
   Minimum threshold for Micro iter.    ....   0.010
   NR start threshold (gradient norm)   ....   0.001
   Initial trust radius                 ....   0.400
   Minimum AH scaling param. (alpha)    ....   1.000
   Maximum AH scaling param. (alpha)    .... 1000.000
   Orbital update algorithm             .... Taylor
   White noise on init. David. guess    .... on
   Maximum white noise                  ....   0.010
   Quad. conv. algorithm                .... NR
 SOSCF                  CNVSOSCF        .... on
   Start iteration      SOSCFMaxIt      ....   150
   Startup grad/error   SOSCFStart      ....  0.003300
 Level Shifting         CNVShift        .... on
   Level shift para.    LevelShift      ....    0.2500
   Turn off err/grad.   ShiftErr        ....    0.0010
 Zerner damping         CNVZerner       .... off
 Static damping         CNVDamp         .... on
   Fraction old density DampFac         ....    0.7000
   Max. Damping (<1)    DampMax         ....    0.9800
   Min. Damping (>=0)   DampMin         ....    0.0000
   Turn off err/grad.   DampErr         ....    0.1000
 Fernandez-Rico         CNVRico         .... off

SCF Procedure:
 Maximum # iterations   MaxIter         ....   125
 SCF integral mode      SCFMode         .... Direct
   Integral package                     .... SHARK and LIBINT hybrid scheme
 Reset frequency        DirectResetFreq ....    20
 Integral Threshold     Thresh          ....  2.500e-11 Eh
 Primitive CutOff       TCut            ....  2.500e-12 Eh

Convergence Tolerance:
 Convergence Check Mode ConvCheckMode   .... Total+1el-Energy
 Convergence forced     ConvForced      .... 0
 Energy Change          TolE            ....  1.000e-08 Eh
 1-El. energy change                    ....  1.000e-05 Eh
 Orbital Gradient       TolG            ....  1.000e-05
 Orbital Rotation angle TolX            ....  1.000e-05
 DIIS Error             TolErr          ....  5.000e-07


Diagonalization of the overlap matrix:
Smallest eigenvalue                        ... 2.398e-04
Time for diagonalization                   ...    0.016 sec
Threshold for overlap eigenvalues          ... 1.000e-08
Number of eigenvalues below threshold      ... 0
Time for construction of square roots      ...    0.013 sec
Total time needed                          ...    0.030 sec

Time for model grid setup =    0.158 sec

------------------------------
INITIAL GUESS: MODEL POTENTIAL
------------------------------
Loading Hartree-Fock densities                     ... done
Calculating cut-offs                               ... done
Initializing the effective Hamiltonian             ... done
Setting up the integral package (SHARK)            ... done
Starting the Coulomb interaction                   ... done (   0.1 sec)
Reading the grid                                   ... done
Mapping shells                                     ... done
Starting the XC term evaluation                    ... done (   0.0 sec)
Transforming the Hamiltonian                       ... done (   0.0 sec)
Diagonalizing the Hamiltonian                      ... done (   0.0 sec)
Back transforming the eigenvectors                 ... done (   0.0 sec)
Now organizing SCF variables                       ... done
                      ------------------
                      INITIAL GUESS DONE (   0.3 sec)
                      ------------------
--------------
SCF ITERATIONS
--------------
ITER       Energy         Delta-E        Max-DP      RMS-DP      [F,P]     Damp
               ***  Starting incremental Fock matrix formation  ***
  0   -784.2708757640   0.000000000000 0.06744331  0.00168229  0.2311598 0.7000
  1   -784.5107708320  -0.239895068045 0.04726248  0.00130644  0.1411176 0.7000
                               ***Turning on DIIS***
  2   -784.6589835174  -0.148212685395 0.11586964  0.00299164  0.0801703 0.0000
  3   -783.7368766108   0.922106906660 0.03373900  0.00067042  0.0412139 0.0000
  4   -784.9432095656  -1.206332954865 0.00981874  0.00024213  0.0069976 0.0000
  5   -784.9562648813  -0.013055315704 0.00403112  0.00009621  0.0041943 0.0000
                      *** Initiating the SOSCF procedure ***
                           *** Shutting down DIIS ***
                      *** Re-Reading the Fockian *** 
                      *** Removing any level shift *** 
ITER      Energy       Delta-E        Grad      Rot      Max-DP    RMS-DP
  6   -784.96825831  -0.0119934245  0.000775  0.000775  0.001610  0.000038
               *** Restarting incremental Fock matrix formation ***
  7   -784.96793960   0.0003187011  0.000353  0.000772  0.000864  0.000015
  8   -784.96794436  -0.0000047541  0.000131  0.000550  0.000651  0.000011
  9   -784.96794545  -0.0000010882  0.000056  0.000131  0.000145  0.000002
 10   -784.96794554  -0.0000000960  0.000030  0.000059  0.000046  0.000001
 11   -784.96794557  -0.0000000242  0.000011  0.000050  0.000048  0.000001
 12   -784.96794557  -0.0000000075  0.000004  0.000016  0.000015  0.000000
                  ***Gradient check signals convergence***
              ***Rediagonalizing the Fockian in SOSCF/NRSCF***

               *****************************************************
               *                     SUCCESS                       *
               *           SCF CONVERGED AFTER  13 CYCLES          *
               *****************************************************


----------------
TOTAL SCF ENERGY
----------------

Total Energy       :         -784.96794557 Eh          -21360.06372 eV

Components:
Nuclear Repulsion  :         1278.71721969 Eh           34795.66453 eV
Electronic Energy  :        -2063.68516526 Eh          -56155.72825 eV
One Electron Energy:        -3607.04302997 Eh          -98152.63083 eV
Two Electron Energy:         1543.35786470 Eh           41996.90258 eV

Virial components:
Potential Energy   :        -1565.90974210 Eh          -42610.57036 eV
Kinetic Energy     :          780.94179652 Eh           21250.50664 eV
Virial Ratio       :            2.00515550


---------------
SCF CONVERGENCE
---------------

  Last Energy change         ...    8.9449e-10  Tolerance :   1.0000e-08
  Last MAX-Density change    ...    4.3357e-06  Tolerance :   1.0000e-07
  Last RMS-Density change    ...    9.8505e-08  Tolerance :   5.0000e-09
  Last Orbital Gradient      ...    1.5291e-06  Tolerance :   1.0000e-05
  Last Orbital Rotation      ...    2.7610e-06  Tolerance :   1.0000e-05

             **** THE GBW FILE WAS UPDATED (./ZINC000000000023/ZINC000000000023.gbw) ****
             **** DENSITY ./ZINC000000000023/ZINC000000000023.scfp WAS UPDATED ****
             **** ENERGY FILE WAS UPDATED (./ZINC000000000023/ZINC000000000023.en.tmp) ****
             **** THE GBW FILE WAS UPDATED (./ZINC000000000023/ZINC000000000023.gbw) ****
             **** DENSITY ./ZINC000000000023/ZINC000000000023.scfp WAS UPDATED ****
----------------
ORBITAL ENERGIES
----------------

  NO   OCC          E(Eh)            E(eV) 
   0   2.0000     -20.590361      -560.2922 
   1   2.0000     -20.549865      -559.1903 
   2   2.0000     -15.531135      -422.6237 
   3   2.0000     -11.308857      -307.7296 
   4   2.0000     -11.299270      -307.4688 
   5   2.0000     -11.287338      -307.1441 
   6   2.0000     -11.256516      -306.3054 
   7   2.0000     -11.251565      -306.1707 
   8   2.0000     -11.244389      -305.9754 
   9   2.0000     -11.243412      -305.9488 
  10   2.0000     -11.242261      -305.9175 
  11   2.0000     -11.241316      -305.8917 
  12   2.0000     -11.238858      -305.8249 
  13   2.0000     -11.235776      -305.7410 
  14   2.0000     -11.233375      -305.6757 
  15   2.0000     -11.227078      -305.5043 
  16   2.0000     -11.216235      -305.2093 
  17   2.0000     -11.211255      -305.0738 
  18   2.0000      -1.403689       -38.1963 
  19   2.0000      -1.335465       -36.3399 
  20   2.0000      -1.191081       -32.4110 
  21   2.0000      -1.145963       -31.1832 
  22   2.0000      -1.072142       -29.1745 
  23   2.0000      -1.047045       -28.4916 
  24   2.0000      -1.017197       -27.6793 
  25   2.0000      -1.008698       -27.4481 
  26   2.0000      -0.981387       -26.7049 
  27   2.0000      -0.920411       -25.0457 
  28   2.0000      -0.916996       -24.9527 
  29   2.0000      -0.900704       -24.5094 
  30   2.0000      -0.824625       -22.4392 
  31   2.0000      -0.804534       -21.8925 
  32   2.0000      -0.797796       -21.7091 
  33   2.0000      -0.781701       -21.2712 
  34   2.0000      -0.754959       -20.5435 
  35   2.0000      -0.726250       -19.7623 
  36   2.0000      -0.703196       -19.1349 
  37   2.0000      -0.686272       -18.6744 
  38   2.0000      -0.666410       -18.1339 
  39   2.0000      -0.658863       -17.9286 
  40   2.0000      -0.644577       -17.5398 
  41   2.0000      -0.627997       -17.0887 
  42   2.0000      -0.622504       -16.9392 
  43   2.0000      -0.615170       -16.7396 
  44   2.0000      -0.603521       -16.4226 
  45   2.0000      -0.597036       -16.2462 
  46   2.0000      -0.592261       -16.1163 
  47   2.0000      -0.578140       -15.7320 
  48   2.0000      -0.574834       -15.6420 
  49   2.0000      -0.554666       -15.0932 
  50   2.0000      -0.545317       -14.8388 
  51   2.0000      -0.536101       -14.5880 
  52   2.0000      -0.534103       -14.5337 
  53   2.0000      -0.527182       -14.3454 
  54   2.0000      -0.524682       -14.2773 
  55   2.0000      -0.508654       -13.8412 
  56   2.0000      -0.507538       -13.8108 
  57   2.0000      -0.498848       -13.5743 
  58   2.0000      -0.489281       -13.3140 
  59   2.0000      -0.488187       -13.2842 
  60   2.0000      -0.479513       -13.0482 
  61   2.0000      -0.472381       -12.8541 
  62   2.0000      -0.464229       -12.6323 
  63   2.0000      -0.444589       -12.0979 
  64   2.0000      -0.363659        -9.8957 
  65   2.0000      -0.361412        -9.8345 
  66   2.0000      -0.336824        -9.1655 
  67   2.0000      -0.316212        -8.6046 
  68   0.0000       0.121275         3.3001 
  69   0.0000       0.141596         3.8530 
  70   0.0000       0.167655         4.5621 
  71   0.0000       0.174700         4.7538 
  72   0.0000       0.181048         4.9266 
  73   0.0000       0.182453         4.9648 
  74   0.0000       0.189589         5.1590 
  75   0.0000       0.202335         5.5058 
  76   0.0000       0.211946         5.7673 
  77   0.0000       0.215336         5.8596 
  78   0.0000       0.226650         6.1675 
  79   0.0000       0.235714         6.4141 
  80   0.0000       0.237469         6.4619 
  81   0.0000       0.245794         6.6884 
  82   0.0000       0.252197         6.8626 
  83   0.0000       0.262177         7.1342 
  84   0.0000       0.265532         7.2255 
  85   0.0000       0.269716         7.3393 
  86   0.0000       0.276723         7.5300 
  87   0.0000       0.284124         7.7314 
  88   0.0000       0.288004         7.8370 
  89   0.0000       0.292731         7.9656 
  90   0.0000       0.297209         8.0875 
  91   0.0000       0.309117         8.4115 
  92   0.0000       0.321319         8.7435 
  93   0.0000       0.324404         8.8275 
  94   0.0000       0.346906         9.4398 
  95   0.0000       0.358271         9.7490 
  96   0.0000       0.367671        10.0048 
  97   0.0000       0.374550        10.1920 
  98   0.0000       0.383948        10.4478 
  99   0.0000       0.395944        10.7742 
 100   0.0000       0.411981        11.2106 
 101   0.0000       0.421463        11.4686 
 102   0.0000       0.440416        11.9843 
 103   0.0000       0.444992        12.1088 
 104   0.0000       0.457693        12.4545 
 105   0.0000       0.465111        12.6563 
 106   0.0000       0.476900        12.9771 
 107   0.0000       0.479052        13.0357 
 108   0.0000       0.499472        13.5913 
 109   0.0000       0.509591        13.8667 
 110   0.0000       0.517211        14.0740 
 111   0.0000       0.535517        14.5721 
 112   0.0000       0.581409        15.8209 
 113   0.0000       0.585187        15.9238 
 114   0.0000       0.593275        16.1438 
 115   0.0000       0.603334        16.4176 
 116   0.0000       0.612841        16.6763 
 117   0.0000       0.624255        16.9868 
 118   0.0000       0.635298        17.2874 
 119   0.0000       0.648808        17.6550 
 120   0.0000       0.650765        17.7082 
 121   0.0000       0.655798        17.8452 
 122   0.0000       0.668013        18.1775 
 123   0.0000       0.674838        18.3633 
 124   0.0000       0.685739        18.6599 
 125   0.0000       0.693209        18.8632 
 126   0.0000       0.696340        18.9484 
 127   0.0000       0.701971        19.1016 
 128   0.0000       0.719919        19.5900 
 129   0.0000       0.739594        20.1254 
 130   0.0000       0.740127        20.1399 
 131   0.0000       0.742534        20.2054 
 132   0.0000       0.748744        20.3743 
 133   0.0000       0.766615        20.8606 
 134   0.0000       0.776338        21.1252 
 135   0.0000       0.779836        21.2204 
 136   0.0000       0.797336        21.6966 
 137   0.0000       0.805998        21.9323 
 138   0.0000       0.821214        22.3464 
 139   0.0000       0.833451        22.6794 
 140   0.0000       0.843393        22.9499 
 141   0.0000       0.847318        23.0567 
 142   0.0000       0.853289        23.2192 
 143   0.0000       0.860415        23.4131 
 144   0.0000       0.865884        23.5619 
 145   0.0000       0.868587        23.6355 
 146   0.0000       0.874494        23.7962 
 147   0.0000       0.880176        23.9508 
 148   0.0000       0.882804        24.0223 
 149   0.0000       0.887297        24.1446 
 150   0.0000       0.894758        24.3476 
 151   0.0000       0.896487        24.3947 
 152   0.0000       0.900420        24.5017 
 153   0.0000       0.903087        24.5743 
 154   0.0000       0.910397        24.7732 
 155   0.0000       0.915111        24.9014 
 156   0.0000       0.916966        24.9519 
 157   0.0000       0.922539        25.1036 
 158   0.0000       0.928521        25.2663 
 159   0.0000       0.930983        25.3333 
 160   0.0000       0.933268        25.3955 
 161   0.0000       0.937049        25.4984 
 162   0.0000       0.944009        25.6878 
 163   0.0000       0.945358        25.7245 
 164   0.0000       0.946722        25.7616 
 165   0.0000       0.953211        25.9382 
 166   0.0000       0.956689        26.0328 
 167   0.0000       0.964331        26.2408 
 168   0.0000       0.969689        26.3866 
 169   0.0000       0.973075        26.4787 
 170   0.0000       0.983643        26.7663 
 171   0.0000       0.991744        26.9867 
 172   0.0000       0.993507        27.0347 
 173   0.0000       1.003501        27.3067 
 174   0.0000       1.011402        27.5216 
 175   0.0000       1.017241        27.6805 
 176   0.0000       1.041957        28.3531 
 177   0.0000       1.057097        28.7651 
 178   0.0000       1.085537        29.5390 
 179   0.0000       1.095394        29.8072 
 180   0.0000       1.101395        29.9705 
 181   0.0000       1.117105        30.3980 
 182   0.0000       1.130347        30.7583 
 183   0.0000       1.166276        31.7360 
 184   0.0000       1.184732        32.2382 
 185   0.0000       1.207455        32.8565 
 186   0.0000       1.219494        33.1841 
 187   0.0000       1.233919        33.5766 
 188   0.0000       1.260525        34.3006 
 189   0.0000       1.274554        34.6824 
 190   0.0000       1.295758        35.2594 
 191   0.0000       1.326164        36.0867 
 192   0.0000       1.330582        36.2070 
 193   0.0000       1.347690        36.6725 
 194   0.0000       1.351682        36.7811 
 195   0.0000       1.370169        37.2842 
 196   0.0000       1.384739        37.6807 
 197   0.0000       1.394687        37.9514 
 198   0.0000       1.408895        38.3380 
 199   0.0000       1.423838        38.7446 
 200   0.0000       1.427840        38.8535 
 201   0.0000       1.447939        39.4004 
 202   0.0000       1.479201        40.2511 
 203   0.0000       1.479963        40.2719 
 204   0.0000       1.496436        40.7201 
 205   0.0000       1.505254        40.9600 
 206   0.0000       1.513821        41.1932 
 207   0.0000       1.521881        41.4125 
 208   0.0000       1.541441        41.9447 
 209   0.0000       1.554328        42.2954 
 210   0.0000       1.563987        42.5583 
 211   0.0000       1.568576        42.6831 
 212   0.0000       1.573967        42.8298 
 213   0.0000       1.592624        43.3375 
 214   0.0000       1.620310        44.0909 
 215   0.0000       1.637572        44.5606 
 216   0.0000       1.658533        45.1310 
 217   0.0000       1.682323        45.7783 
 218   0.0000       1.707963        46.4760 
 219   0.0000       1.720194        46.8089 
 220   0.0000       1.747876        47.5621 
 221   0.0000       1.750202        47.6254 
 222   0.0000       1.776868        48.3510 
 223   0.0000       1.799880        48.9772 
 224   0.0000       1.823162        49.6108 
 225   0.0000       1.825396        49.6716 
 226   0.0000       1.829218        49.7755 
 227   0.0000       1.852494        50.4089 
 228   0.0000       1.883145        51.2430 
 229   0.0000       1.894853        51.5616 
 230   0.0000       1.918548        52.2063 
 231   0.0000       1.934797        52.6485 
 232   0.0000       1.940344        52.7995 
 233   0.0000       1.947073        52.9826 
 234   0.0000       1.957074        53.2547 
 235   0.0000       1.963496        53.4295 
 236   0.0000       1.975293        53.7504 
 237   0.0000       1.987150        54.0731 
 238   0.0000       1.997449        54.3533 
 239   0.0000       1.999558        54.4107 
 240   0.0000       2.005535        54.5734 
 241   0.0000       2.011836        54.7448 
 242   0.0000       2.027853        55.1807 
 243   0.0000       2.038382        55.4672 
 244   0.0000       2.043557        55.6080 
 245   0.0000       2.049202        55.7616 
 246   0.0000       2.056088        55.9490 
 247   0.0000       2.062693        56.1287 
 248   0.0000       2.075301        56.4718 
 249   0.0000       2.077059        56.5196 
 250   0.0000       2.087686        56.8088 
 251   0.0000       2.093712        56.9728 
 252   0.0000       2.099706        57.1359 
 253   0.0000       2.105192        57.2852 
 254   0.0000       2.110127        57.4195 
 255   0.0000       2.113207        57.5033 
 256   0.0000       2.119190        57.6661 
 257   0.0000       2.122065        57.7443 
 258   0.0000       2.129475        57.9460 
 259   0.0000       2.137773        58.1717 
 260   0.0000       2.146048        58.3969 
 261   0.0000       2.148979        58.4767 
 262   0.0000       2.173742        59.1505 
 263   0.0000       2.174915        59.1824 
 264   0.0000       2.187294        59.5193 
 265   0.0000       2.196262        59.7633 
 266   0.0000       2.199128        59.8413 
 267   0.0000       2.212345        60.2010 
 268   0.0000       2.226757        60.5932 
 269   0.0000       2.231706        60.7278 
 270   0.0000       2.245408        61.1007 
 271   0.0000       2.249301        61.2066 
 272   0.0000       2.256049        61.3902 
 273   0.0000       2.269583        61.7585 
 274   0.0000       2.274372        61.8888 
 275   0.0000       2.286115        62.2083 
 276   0.0000       2.293785        62.4171 
 277   0.0000       2.300771        62.6072 
 278   0.0000       2.312682        62.9313 
 279   0.0000       2.320286        63.1382 
 280   0.0000       2.338282        63.6279 
 281   0.0000       2.372298        64.5535 
 282   0.0000       2.377732        64.7014 
 283   0.0000       2.397139        65.2295 
 284   0.0000       2.401246        65.3412 
 285   0.0000       2.421052        65.8802 
 286   0.0000       2.428321        66.0780 
 287   0.0000       2.433095        66.2079 
 288   0.0000       2.451239        66.7016 
 289   0.0000       2.469376        67.1951 
 290   0.0000       2.499406        68.0123 
 291   0.0000       2.511265        68.3350 
 292   0.0000       2.514530        68.4238 
 293   0.0000       2.529150        68.8217 
 294   0.0000       2.541301        69.1523 
 295   0.0000       2.562350        69.7251 
 296   0.0000       2.569327        69.9149 
 297   0.0000       2.585173        70.3461 
 298   0.0000       2.589426        70.4619 
 299   0.0000       2.605566        70.9011 
 300   0.0000       2.616190        71.1902 
 301   0.0000       2.627210        71.4900 
 302   0.0000       2.628085        71.5138 
 303   0.0000       2.636893        71.7535 
 304   0.0000       2.655364        72.2561 
 305   0.0000       2.674671        72.7815 
 306   0.0000       2.696021        73.3625 
 307   0.0000       2.717217        73.9392 
 308   0.0000       2.730760        74.3078 
 309   0.0000       2.738626        74.5218 
 310   0.0000       2.749723        74.8238 
 311   0.0000       2.770456        75.3879 
 312   0.0000       2.782977        75.7287 
 313   0.0000       2.810304        76.4722 
 314   0.0000       2.818563        76.6970 
 315   0.0000       2.820578        76.7518 
 316   0.0000       2.839353        77.2627 
 317   0.0000       2.862395        77.8897 
 318   0.0000       2.895947        78.8027 
 319   0.0000       2.908169        79.1353 
 320   0.0000       2.929625        79.7192 
 321   0.0000       2.931660        79.7745 
 322   0.0000       2.950702        80.2927 
 323   0.0000       2.959801        80.5403 
 324   0.0000       2.971862        80.8685 
 325   0.0000       3.025749        82.3348 
 326   0.0000       3.031237        82.4842 
 327   0.0000       3.049029        82.9683 
 328   0.0000       3.083609        83.9093 
 329   0.0000       3.084972        83.9464 
 330   0.0000       3.109397        84.6110 
 331   0.0000       3.120355        84.9092 
 332   0.0000       3.135958        85.3338 
 333   0.0000       3.160910        86.0127 
 334   0.0000       3.175031        86.3970 
 335   0.0000       3.176065        86.4251 
 336   0.0000       3.194776        86.9343 
 337   0.0000       3.207271        87.2743 
 338   0.0000       3.225152        87.7608 
 339   0.0000       3.242983        88.2460 
 340   0.0000       3.260266        88.7164 
 341   0.0000       3.265907        88.8698 
 342   0.0000       3.276024        89.1451 
 343   0.0000       3.283330        89.3439 
 344   0.0000       3.305248        89.9404 
 345   0.0000       3.339240        90.8653 
 346   0.0000       3.346199        91.0547 
 347   0.0000       3.360155        91.4345 
 348   0.0000       3.367865        91.6443 
 349   0.0000       3.377976        91.9194 
 350   0.0000       3.392000        92.3010 
 351   0.0000       3.420897        93.0873 
 352   0.0000       3.428455        93.2930 
 353   0.0000       3.443262        93.6959 
 354   0.0000       3.453762        93.9816 
 355   0.0000       3.468048        94.3704 
 356   0.0000       3.490796        94.9894 
 357   0.0000       3.546665        96.5097 
 358   0.0000       3.581204        97.4495 
 359   0.0000       3.596187        97.8572 
 360   0.0000       3.664420        99.7140 
 361   0.0000       3.740350       101.7801 
 362   0.0000       3.790996       103.1582 
 363   0.0000       3.833975       104.3278 
 364   0.0000       3.871948       105.3611 
 365   0.0000       4.094405       111.4144 
 366   0.0000       4.207061       114.4800 

                    ********************************
                    * MULLIKEN POPULATION ANALYSIS *
                    ********************************

-----------------------
MULLIKEN ATOMIC CHARGES
-----------------------
   0 C :   -0.080515
   1 C :   -0.120326
   2 C :    0.150605
   3 C :   -0.249164
   4 C :    0.007968
   5 C :   -0.055820
   6 C :   -0.000219
   7 C :   -0.148648
   8 C :    0.353142
   9 O :   -0.598717
  10 C :    0.274370
  11 C :    0.178212
  12 O :   -0.482569
  13 C :    0.205622
  14 N :   -0.495979
  15 C :   -0.031175
  16 C :   -0.002107
  17 C :    0.030685
  18 H :    0.043773
  19 H :    0.053798
  20 H :    0.044811
  21 H :    0.034307
  22 H :    0.056551
  23 H :    0.034821
  24 H :    0.037249
  25 H :    0.042074
  26 H :    0.037427
  27 H :    0.035688
  28 H :    0.041318
  29 H :    0.039083
  30 H :    0.213780
  31 H :    0.007110
  32 H :    0.022518
  33 H :    0.143319
  34 H :    0.024791
  35 H :    0.025710
  36 H :    0.024860
  37 H :    0.029130
  38 H :    0.017772
  39 H :    0.018539
  40 H :    0.036204
Sum of atomic charges:    0.0000000

--------------------------------
MULLIKEN REDUCED ORBITAL CHARGES
--------------------------------
  0 C s       :     3.104274  s :     3.104274
      pz      :     0.962966  p :     2.941004
      px      :     0.974457
      py      :     1.003581
      dz2     :     0.008714  d :     0.035237
      dxz     :     0.009661
      dyz     :     0.004190
      dx2y2   :     0.007319
      dxy     :     0.005352
  1 C s       :     3.160665  s :     3.160665
      pz      :     0.961590  p :     2.913686
      px      :     0.998910
      py      :     0.953186
      dz2     :     0.011435  d :     0.045974
      dxz     :     0.013596
      dyz     :     0.007007
      dx2y2   :     0.008450
      dxy     :     0.005487
  2 C s       :     2.976546  s :     2.976546
      pz      :     0.942096  p :     2.827296
      px      :     1.013504
      py      :     0.871696
      dz2     :     0.011336  d :     0.045552
      dxz     :     0.008466
      dyz     :     0.008710
      dx2y2   :     0.010844
      dxy     :     0.006196
  3 C s       :     3.072876  s :     3.072876
      pz      :     1.034692  p :     3.126417
      px      :     1.009984
      py      :     1.081741
      dz2     :     0.004480  d :     0.049871
      dxz     :     0.006773
      dyz     :     0.006501
      dx2y2   :     0.015175
      dxy     :     0.016942
  4 C s       :     3.157786  s :     3.157786
      pz      :     0.958735  p :     2.790432
      px      :     0.931412
      py      :     0.900286
      dz2     :     0.003680  d :     0.043814
      dxz     :     0.004337
      dyz     :     0.007270
      dx2y2   :     0.014038
      dxy     :     0.014488
  5 C s       :     3.131001  s :     3.131001
      pz      :     1.018054  p :     2.881123
      px      :     0.927511
      py      :     0.935559
      dz2     :     0.003745  d :     0.043696
      dxz     :     0.004539
      dyz     :     0.006172
      dx2y2   :     0.014363
      dxy     :     0.014877
  6 C s       :     3.112225  s :     3.112225
      pz      :     0.968767  p :     2.843112
      px      :     0.947483
      py      :     0.926863
      dz2     :     0.003795  d :     0.044881
      dxz     :     0.008534
      dyz     :     0.003355
      dx2y2   :     0.014983
      dxy     :     0.014215
  7 C s       :     3.191301  s :     3.191301
      pz      :     1.070041  p :     2.915595
      px      :     0.925233
      py      :     0.920322
      dz2     :     0.003685  d :     0.041751
      dxz     :     0.003998
      dyz     :     0.006785
      dx2y2   :     0.014706
      dxy     :     0.012577
  8 C s       :     2.994172  s :     2.994172
      pz      :     0.942141  p :     2.568400
      px      :     0.810564
      py      :     0.815695
      dz2     :     0.006708  d :     0.084286
      dxz     :     0.013677
      dyz     :     0.012154
      dx2y2   :     0.023242
      dxy     :     0.028505
  9 O s       :     3.806573  s :     3.806573
      pz      :     1.864261  p :     4.774763
      px      :     1.271556
      py      :     1.638945
      dz2     :     0.002513  d :     0.017381
      dxz     :     0.002102
      dyz     :     0.001706
      dx2y2   :     0.002331
      dxy     :     0.008730
 10 C s       :     3.001892  s :     3.001892
      pz      :     1.004132  p :     2.654780
      px      :     0.694782
      py      :     0.955866
      dz2     :     0.012682  d :     0.068958
      dxz     :     0.008403
      dyz     :     0.014362
      dx2y2   :     0.014150
      dxy     :     0.019361
 11 C s       :     3.087021  s :     3.087021
      pz      :     0.769094  p :     2.655635
      px      :     0.966668
      py      :     0.919872
      dz2     :     0.021174  d :     0.079132
      dxz     :     0.009389
      dyz     :     0.023688
      dx2y2   :     0.008497
      dxy     :     0.016383
 12 O s       :     3.768788  s :     3.768788
      pz      :     1.518721  p :     4.700079
      px      :     1.407694
      py      :     1.773665
      dz2     :     0.004822  d :     0.013702
      dxz     :     0.001127
      dyz     :     0.003088
      dx2y2   :     0.003521
      dxy     :     0.001143
 13 C s       :     2.975281  s :     2.975281
      pz      :     0.993704  p :     2.759201
      px      :     0.867640
      py      :     0.897857
      dz2     :     0.009983  d :     0.059895
      dxz     :     0.004612
      dyz     :     0.017626
      dx2y2   :     0.011347
      dxy     :     0.016328
 14 N s       :     3.542070  s :     3.542070
      pz      :     1.531287  p :     3.926972
      px      :     1.112235
      py      :     1.283449
      dz2     :     0.005821  d :     0.026937
      dxz     :     0.002434
      dyz     :     0.004609
      dx2y2   :     0.005319
      dxy     :     0.008754
 15 C s       :     3.133687  s :     3.133687
      pz      :     0.992996  p :     2.826345
      px      :     0.814107
      py      :     1.019242
      dz2     :     0.013057  d :     0.071143
      dxz     :     0.013445
      dyz     :     0.014654
      dx2y2   :     0.015277
      dxy     :     0.014709
 16 C s       :     3.033974  s :     3.033974
      pz      :     0.953112  p :     2.931330
      px      :     0.985917
      py      :     0.992301
      dz2     :     0.008528  d :     0.036803
      dxz     :     0.004012
      dyz     :     0.010982
      dx2y2   :     0.007675
      dxy     :     0.005606
 17 C s       :     3.025427  s :     3.025427
      pz      :     0.999067  p :     2.906875
      px      :     0.952530
      py      :     0.955278
      dz2     :     0.007930  d :     0.037014
      dxz     :     0.003122
      dyz     :     0.010314
      dx2y2   :     0.008876
      dxy     :     0.006772
 18 H s       :     0.930116  s :     0.930116
      pz      :     0.006638  p :     0.026111
      px      :     0.014513
      py      :     0.004959
 19 H s       :     0.920047  s :     0.920047
      pz      :     0.017710  p :     0.026156
      px      :     0.003491
      py      :     0.004955
 20 H s       :     0.930510  s :     0.930510
      pz      :     0.006708  p :     0.024679
      px      :     0.013826
      py      :     0.004145
 21 H s       :     0.941217  s :     0.941217
      pz      :     0.005975  p :     0.024476
      px      :     0.014069
      py      :     0.004433
 22 H s       :     0.918208  s :     0.918208
      pz      :     0.007309  p :     0.025241
      px      :     0.011813
      py      :     0.006119
 23 H s       :     0.939673  s :     0.939673
      pz      :     0.004267  p :     0.025506
      px      :     0.015698
      py      :     0.005542
 24 H s       :     0.937167  s :     0.937167
      pz      :     0.004262  p :     0.025584
      px      :     0.013909
      py      :     0.007413
 25 H s       :     0.932377  s :     0.932377
      pz      :     0.004108  p :     0.025549
      px      :     0.002513
      py      :     0.018928
 26 H s       :     0.936483  s :     0.936483
      pz      :     0.004890  p :     0.026090
      px      :     0.014568
      py      :     0.006632
 27 H s       :     0.940677  s :     0.940677
      pz      :     0.015181  p :     0.023635
      px      :     0.001588
      py      :     0.006866
 28 H s       :     0.935387  s :     0.935387
      pz      :     0.013201  p :     0.023294
      px      :     0.001862
      py      :     0.008232
 29 H s       :     0.938900  s :     0.938900
      pz      :     0.009368  p :     0.022018
      px      :     0.002973
      py      :     0.009677
 30 H s       :     0.716434  s :     0.716434
      pz      :     0.013366  p :     0.069786
      px      :     0.038878
      py      :     0.017543
 31 H s       :     0.969792  s :     0.969792
      pz      :     0.012454  p :     0.023098
      px      :     0.003071
      py      :     0.007573
 32 H s       :     0.954208  s :     0.954208
      pz      :     0.014457  p :     0.023274
      px      :     0.002264
      py      :     0.006553
 33 H s       :     0.811633  s :     0.811633
      pz      :     0.021864  p :     0.045048
      px      :     0.006098
      py      :     0.017086
 34 H s       :     0.953114  s :     0.953114
      pz      :     0.009299  p :     0.022095
      px      :     0.001851
      py      :     0.010946
 35 H s       :     0.949324  s :     0.949324
      pz      :     0.009918  p :     0.024966
      px      :     0.004117
      py      :     0.010931
 36 H s       :     0.949863  s :     0.949863
      pz      :     0.003522  p :     0.025276
      px      :     0.016977
      py      :     0.004777
 37 H s       :     0.945599  s :     0.945599
      pz      :     0.004916  p :     0.025271
      px      :     0.007339
      py      :     0.013016
 38 H s       :     0.957108  s :     0.957108
      pz      :     0.004093  p :     0.025119
      px      :     0.016520
      py      :     0.004506
 39 H s       :     0.956329  s :     0.956329
      pz      :     0.008960  p :     0.025131
      px      :     0.003967
      py      :     0.012205
 40 H s       :     0.938889  s :     0.938889
      pz      :     0.015114  p :     0.024907
      px      :     0.005142
      py      :     0.004652


                     *******************************
                     * LOEWDIN POPULATION ANALYSIS *
                     *******************************

----------------------
LOEWDIN ATOMIC CHARGES
----------------------
   0 C :   -0.064849
   1 C :   -0.012403
   2 C :   -0.002910
   3 C :   -0.054456
   4 C :   -0.002351
   5 C :   -0.048274
   6 C :   -0.011955
   7 C :   -0.078776
   8 C :    0.094242
   9 O :   -0.205334
  10 C :    0.125557
  11 C :    0.103281
  12 O :   -0.207435
  13 C :    0.058987
  14 N :   -0.156992
  15 C :    0.035041
  16 C :   -0.043561
  17 C :   -0.032112
  18 H :    0.016737
  19 H :    0.021342
  20 H :    0.020638
  21 H :    0.024801
  22 H :    0.029363
  23 H :    0.028184
  24 H :    0.025318
  25 H :    0.028354
  26 H :    0.026224
  27 H :    0.010959
  28 H :    0.012478
  29 H :    0.011931
  30 H :    0.086769
  31 H :   -0.003812
  32 H :    0.011654
  33 H :    0.058200
  34 H :    0.009487
  35 H :    0.015323
  36 H :    0.015739
  37 H :    0.012163
  38 H :    0.011045
  39 H :    0.013353
  40 H :    0.018053

-------------------------------
LOEWDIN REDUCED ORBITAL CHARGES
-------------------------------
  0 C s       :     2.876169  s :     2.876169
      pz      :     1.041439  p :     3.110214
      px      :     1.049150
      py      :     1.019625
      dz2     :     0.020945  d :     0.078466
      dxz     :     0.021795
      dyz     :     0.010067
      dx2y2   :     0.013993
      dxy     :     0.011666
  1 C s       :     2.874516  s :     2.874516
      pz      :     1.027417  p :     3.040335
      px      :     1.051312
      py      :     0.961606
      dz2     :     0.024968  d :     0.097552
      dxz     :     0.029380
      dyz     :     0.015419
      dx2y2   :     0.016056
      dxy     :     0.011729
  2 C s       :     2.819579  s :     2.819579
      pz      :     1.025386  p :     3.081025
      px      :     1.056380
      py      :     0.999259
      dz2     :     0.025040  d :     0.102306
      dxz     :     0.019358
      dyz     :     0.019198
      dx2y2   :     0.024517
      dxy     :     0.014193
  3 C s       :     2.852086  s :     2.852086
      pz      :     0.990926  p :     3.093838
      px      :     1.062692
      py      :     1.040220
      dz2     :     0.008416  d :     0.108532
      dxz     :     0.013155
      dyz     :     0.011721
      dx2y2   :     0.036017
      dxy     :     0.039223
  4 C s       :     2.852442  s :     2.852442
      pz      :     0.953934  p :     3.050665
      px      :     1.039226
      py      :     1.057505
      dz2     :     0.006953  d :     0.099244
      dxz     :     0.007857
      dyz     :     0.014185
      dx2y2   :     0.034281
      dxy     :     0.035969
  5 C s       :     2.849105  s :     2.849105
      pz      :     0.998707  p :     3.100333
      px      :     1.045662
      py      :     1.055965
      dz2     :     0.007347  d :     0.098836
      dxz     :     0.007967
      dyz     :     0.011885
      dx2y2   :     0.034595
      dxy     :     0.037041
  6 C s       :     2.850600  s :     2.850600
      pz      :     0.957034  p :     3.061017
      px      :     1.064421
      py      :     1.039561
      dz2     :     0.007248  d :     0.100339
      dxz     :     0.017030
      dyz     :     0.005326
      dx2y2   :     0.037099
      dxy     :     0.033636
  7 C s       :     2.849172  s :     2.849172
      pz      :     1.042250  p :     3.134438
      px      :     1.050598
      py      :     1.041590
      dz2     :     0.007235  d :     0.095166
      dxz     :     0.006906
      dyz     :     0.012914
      dx2y2   :     0.035838
      dxy     :     0.032274
  8 C s       :     2.828023  s :     2.828023
      pz      :     0.948743  p :     2.896961
      px      :     0.925020
      py      :     1.023198
      dz2     :     0.013033  d :     0.180775
      dxz     :     0.026849
      dyz     :     0.023371
      dx2y2   :     0.053240
      dxy     :     0.064282
  9 O s       :     3.442499  s :     3.442499
      pz      :     1.833293  p :     4.733324
      px      :     1.263876
      py      :     1.636155
      dz2     :     0.003712  d :     0.029511
      dxz     :     0.004002
      dyz     :     0.002049
      dx2y2   :     0.005736
      dxy     :     0.014012
 10 C s       :     2.843799  s :     2.843799
      pz      :     1.059140  p :     2.882593
      px      :     0.807523
      py      :     1.015930
      dz2     :     0.026539  d :     0.148051
      dxz     :     0.017919
      dyz     :     0.032797
      dx2y2   :     0.028545
      dxy     :     0.042251
 11 C s       :     2.849903  s :     2.849903
      pz      :     0.861133  p :     2.885698
      px      :     1.034323
      py      :     0.990243
      dz2     :     0.044078  d :     0.161119
      dxz     :     0.016505
      dyz     :     0.048177
      dx2y2   :     0.017857
      dxy     :     0.034501
 12 O s       :     3.458935  s :     3.458935
      pz      :     1.524754  p :     4.725205
      px      :     1.459669
      py      :     1.740782
      dz2     :     0.007976  d :     0.023295
      dxz     :     0.001845
      dyz     :     0.004836
      dx2y2   :     0.006589
      dxy     :     0.002049
 13 C s       :     2.831528  s :     2.831528
      pz      :     1.050297  p :     2.981407
      px      :     0.956998
      py      :     0.974111
      dz2     :     0.021410  d :     0.128078
      dxz     :     0.009114
      dyz     :     0.039243
      dx2y2   :     0.024482
      dxy     :     0.033829
 14 N s       :     3.136185  s :     3.136185
      pz      :     1.531158  p :     3.967500
      px      :     1.142563
      py      :     1.293779
      dz2     :     0.010043  d :     0.053307
      dxz     :     0.004616
      dyz     :     0.009666
      dx2y2   :     0.011812
      dxy     :     0.017171
 15 C s       :     2.834307  s :     2.834307
      pz      :     1.031861  p :     2.983902
      px      :     0.916434
      py      :     1.035607
      dz2     :     0.026584  d :     0.146750
      dxz     :     0.027263
      dyz     :     0.031018
      dx2y2   :     0.031380
      dxy     :     0.030506
 16 C s       :     2.839398  s :     2.839398
      pz      :     1.029015  p :     3.121127
      px      :     1.044518
      py      :     1.047593
      dz2     :     0.018905  d :     0.083036
      dxz     :     0.009303
      dyz     :     0.024853
      dx2y2   :     0.017354
      dxy     :     0.012621
 17 C s       :     2.839800  s :     2.839800
      pz      :     1.047998  p :     3.109260
      px      :     1.033295
      py      :     1.027967
      dz2     :     0.017597  d :     0.083052
      dxz     :     0.006962
      dyz     :     0.023222
      dx2y2   :     0.019923
      dxy     :     0.015347
 18 H s       :     0.914522  s :     0.914522
      pz      :     0.018489  p :     0.068741
      px      :     0.034737
      py      :     0.015514
 19 H s       :     0.909726  s :     0.909726
      pz      :     0.041743  p :     0.068932
      px      :     0.011522
      py      :     0.015666
 20 H s       :     0.911002  s :     0.911002
      pz      :     0.020650  p :     0.068359
      px      :     0.033395
      py      :     0.014314
 21 H s       :     0.910543  s :     0.910543
      pz      :     0.017149  p :     0.064656
      px      :     0.033500
      py      :     0.014006
 22 H s       :     0.903144  s :     0.903144
      pz      :     0.020528  p :     0.067493
      px      :     0.028753
      py      :     0.018212
 23 H s       :     0.904043  s :     0.904043
      pz      :     0.014005  p :     0.067773
      px      :     0.037317
      py      :     0.016451
 24 H s       :     0.906133  s :     0.906133
      pz      :     0.014754  p :     0.068549
      px      :     0.033472
      py      :     0.020323
 25 H s       :     0.903710  s :     0.903710
      pz      :     0.013912  p :     0.067936
      px      :     0.010319
      py      :     0.043704
 26 H s       :     0.902441  s :     0.902441
      pz      :     0.016927  p :     0.071335
      px      :     0.035616
      py      :     0.018792
 27 H s       :     0.923014  s :     0.923014
      pz      :     0.036948  p :     0.066027
      px      :     0.008577
      py      :     0.020502
 28 H s       :     0.921086  s :     0.921086
      pz      :     0.032337  p :     0.066436
      px      :     0.009820
      py      :     0.024279
 29 H s       :     0.921426  s :     0.921426
      pz      :     0.026419  p :     0.066643
      px      :     0.013504
      py      :     0.026720
 30 H s       :     0.731664  s :     0.731664
      pz      :     0.037681  p :     0.181567
      px      :     0.094519
      py      :     0.049367
 31 H s       :     0.936665  s :     0.936665
      pz      :     0.030292  p :     0.067148
      px      :     0.013538
      py      :     0.023317
 32 H s       :     0.924364  s :     0.924364
      pz      :     0.034246  p :     0.063982
      px      :     0.011184
      py      :     0.018552
 33 H s       :     0.815348  s :     0.815348
      pz      :     0.060945  p :     0.126452
      px      :     0.020547
      py      :     0.044960
 34 H s       :     0.926454  s :     0.926454
      pz      :     0.025662  p :     0.064059
      px      :     0.009685
      py      :     0.028712
 35 H s       :     0.919244  s :     0.919244
      pz      :     0.026656  p :     0.065433
      px      :     0.012211
      py      :     0.026566
 36 H s       :     0.918691  s :     0.918691
      pz      :     0.012348  p :     0.065571
      px      :     0.039390
      py      :     0.013833
 37 H s       :     0.921739  s :     0.921739
      pz      :     0.015905  p :     0.066099
      px      :     0.019162
      py      :     0.031032
 38 H s       :     0.924006  s :     0.924006
      pz      :     0.012374  p :     0.064950
      px      :     0.038819
      py      :     0.013756
 39 H s       :     0.921492  s :     0.921492
      pz      :     0.022527  p :     0.065155
      px      :     0.012080
      py      :     0.030547
 40 H s       :     0.916671  s :     0.916671
      pz      :     0.036112  p :     0.065276
      px      :     0.014431
      py      :     0.014733


                      *****************************
                      * MAYER POPULATION ANALYSIS *
                      *****************************

  NA   - Mulliken gross atomic population
  ZA   - Total nuclear charge
  QA   - Mulliken gross atomic charge
  VA   - Mayer's total valence
  BVA  - Mayer's bonded valence
  FA   - Mayer's free valence

  ATOM       NA         ZA         QA         VA         BVA        FA
  0 C      6.0805     6.0000    -0.0805     3.9654     3.9654    -0.0000
  1 C      6.1203     6.0000    -0.1203     3.9545     3.9545     0.0000
  2 C      5.8494     6.0000     0.1506     3.8456     3.8456     0.0000
  3 C      6.2492     6.0000    -0.2492     3.8882     3.8882     0.0000
  4 C      5.9920     6.0000     0.0080     3.9079     3.9079     0.0000
  5 C      6.0558     6.0000    -0.0558     3.8773     3.8773     0.0000
  6 C      6.0002     6.0000    -0.0002     3.8633     3.8633     0.0000
  7 C      6.1486     6.0000    -0.1486     3.8658     3.8658     0.0000
  8 C      5.6469     6.0000     0.3531     3.7926     3.7926     0.0000
  9 O      8.5987     8.0000    -0.5987     1.8706     1.8706    -0.0000
 10 C      5.7256     6.0000     0.2744     3.7818     3.7818     0.0000
 11 C      5.8218     6.0000     0.1782     3.9058     3.9058     0.0000
 12 O      8.4826     8.0000    -0.4826     1.9072     1.9072    -0.0000
 13 C      5.7944     6.0000     0.2056     3.8568     3.8568    -0.0000
 14 N      7.4960     7.0000    -0.4960     2.8196     2.8196     0.0000
 15 C      6.0312     6.0000    -0.0312     3.9676     3.9676     0.0000
 16 C      6.0021     6.0000    -0.0021     3.8885     3.8885    -0.0000
 17 C      5.9693     6.0000     0.0307     3.9059     3.9059     0.0000
 18 H      0.9562     1.0000     0.0438     0.9854     0.9854     0.0000
 19 H      0.9462     1.0000     0.0538     0.9774     0.9774    -0.0000
 20 H      0.9552     1.0000     0.0448     0.9879     0.9879     0.0000
 21 H      0.9657     1.0000     0.0343     0.9866     0.9866     0.0000
 22 H      0.9434     1.0000     0.0566     0.9870     0.9870    -0.0000
 23 H      0.9652     1.0000     0.0348     0.9949     0.9949     0.0000
 24 H      0.9628     1.0000     0.0372     0.9861     0.9861     0.0000
 25 H      0.9579     1.0000     0.0421     0.9858     0.9858     0.0000
 26 H      0.9626     1.0000     0.0374     0.9927     0.9927     0.0000
 27 H      0.9643     1.0000     0.0357     0.9802     0.9802    -0.0000
 28 H      0.9587     1.0000     0.0413     0.9863     0.9863     0.0000
 29 H      0.9609     1.0000     0.0391     0.9880     0.9880     0.0000
 30 H      0.7862     1.0000     0.2138     0.9928     0.9928    -0.0000
 31 H      0.9929     1.0000     0.0071     0.9788     0.9788    -0.0000
 32 H      0.9775     1.0000     0.0225     0.9817     0.9817    -0.0000
 33 H      0.8567     1.0000     0.1433     0.9864     0.9864     0.0000
 34 H      0.9752     1.0000     0.0248     0.9675     0.9675     0.0000
 35 H      0.9743     1.0000     0.0257     0.9893     0.9893     0.0000
 36 H      0.9751     1.0000     0.0249     0.9831     0.9831    -0.0000
 37 H      0.9709     1.0000     0.0291     0.9828     0.9828     0.0000
 38 H      0.9822     1.0000     0.0178     0.9804     0.9804     0.0000
 39 H      0.9815     1.0000     0.0185     0.9895     0.9895     0.0000
 40 H      0.9638     1.0000     0.0362     0.9900     0.9900     0.0000

  Mayer bond orders larger than 0.100000
B(  0-C ,  1-C ) :   2.0088 B(  0-C , 18-H ) :   0.9795 B(  0-C , 19-H ) :   0.9770 
B(  1-C ,  2-C ) :   0.9957 B(  1-C , 20-H ) :   0.9764 B(  2-C ,  3-C ) :   0.9897 
B(  2-C , 21-H ) :   0.9774 B(  2-C , 22-H ) :   0.9616 B(  3-C ,  4-C ) :   1.4440 
B(  3-C ,  8-C ) :   1.4190 B(  4-C ,  5-C ) :   1.4123 B(  4-C , 23-H ) :   1.0020 
B(  5-C ,  6-C ) :   1.4270 B(  5-C , 24-H ) :   1.0020 B(  6-C ,  7-C ) :   1.3920 
B(  6-C , 25-H ) :   0.9980 B(  7-C ,  8-C ) :   1.3746 B(  7-C , 26-H ) :   1.0065 
B(  8-C ,  9-O ) :   0.9777 B(  9-O , 10-C ) :   0.8504 B( 10-C , 11-C ) :   1.0242 
B( 10-C , 27-H ) :   0.9693 B( 10-C , 28-H ) :   0.9620 B( 11-C , 12-O ) :   0.9138 
B( 11-C , 13-C ) :   1.0261 B( 11-C , 29-H ) :   0.9616 B( 12-O , 30-H ) :   0.9604 
B( 13-C , 14-N ) :   0.9721 B( 13-C , 31-H ) :   0.9530 B( 13-C , 32-H ) :   0.9700 
B( 14-N , 15-C ) :   0.9314 B( 14-N , 33-H ) :   0.9450 B( 15-C , 16-C ) :   1.0210 
B( 15-C , 17-C ) :   1.0350 B( 15-C , 34-H ) :   0.9678 B( 16-C , 35-H ) :   0.9767 
B( 16-C , 36-H ) :   0.9821 B( 16-C , 37-H ) :   0.9842 B( 17-C , 38-H ) :   0.9851 
B( 17-C , 39-H ) :   0.9785 B( 17-C , 40-H ) :   0.9853 

-------
TIMINGS
-------

Total SCF time: 0 days 0 hours 0 min 15 sec 

Total time                  ....      15.565 sec
Sum of individual times     ....      15.273 sec  ( 98.1%)

Fock matrix formation       ....      14.396 sec  ( 92.5%)
Diagonalization             ....       0.247 sec  (  1.6%)
Density matrix formation    ....       0.031 sec  (  0.2%)
Population analysis         ....       0.026 sec  (  0.2%)
Initial guess               ....       0.111 sec  (  0.7%)
Orbital Transformation      ....       0.000 sec  (  0.0%)
Orbital Orthonormalization  ....       0.000 sec  (  0.0%)
DIIS solution               ....       0.135 sec  (  0.9%)
SOSCF solution              ....       0.169 sec  (  1.1%)

Maximum memory used throughout the entire SCF-calculation: 237.7 MB

-------------------------   --------------------
FINAL SINGLE POINT ENERGY      -784.967945573992
-------------------------   --------------------


                            ***************************************
                            *     ORCA property calculations      *
                            ***************************************

                                    ---------------------
                                    Active property flags
                                    ---------------------
   (+) Dipole Moment


------------------------------------------------------------------------------
                       ORCA ELECTRIC PROPERTIES CALCULATION
------------------------------------------------------------------------------

Dipole Moment Calculation                       ... on
Quadrupole Moment Calculation                   ... off
Polarizability Calculation                      ... off
GBWName                                         ... ./ZINC000000000023/ZINC000000000023.gbw
Electron density                                ... ./ZINC000000000023/ZINC000000000023.scfp
The origin for moment calculation is the CENTER OF MASS  = (-0.903760, -0.189019 -0.015414)

-------------
DIPOLE MOMENT
-------------
                                X             Y             Z
Electronic contribution:    -21.08193      -5.50988       0.59348
Nuclear contribution   :     20.98149       4.73965      -0.40683
                        -----------------------------------------
Total Dipole Moment    :     -0.10044      -0.77023       0.18665
                        -----------------------------------------
Magnitude (a.u.)       :      0.79886
Magnitude (Debye)      :      2.03055



--------------------
Rotational spectrum 
--------------------
 
Rotational constants in cm-1:     0.026356     0.004928     0.004347 
Rotational constants in MHz :   790.134863   147.739786   130.326713 

 Dipole components along the rotational axes: 
x,y,z [a.u.] :     0.196971    -0.769615    -0.084129 
x,y,z [Debye]:     0.500660    -1.956205    -0.213840 

 

Timings for individual modules:

Sum of individual times         ...       16.209 sec (=   0.270 min)
GTO integral calculation        ...        0.405 sec (=   0.007 min)   2.5 %
SCF iterations                  ...       15.804 sec (=   0.263 min)  97.5 %
                             ****ORCA TERMINATED NORMALLY****
TOTAL RUN TIME: 0 days 0 hours 0 minutes 16 seconds 567 msec
