
                                 *****************
                                 * O   R   C   A *
                                 *****************

                                            #,                                       
                                            ###                                      
                                            ####                                     
                                            #####                                    
                                            ######                                   
                                           ########,                                 
                                     ,,################,,,,,                         
                               ,,#################################,,                 
                          ,,##########################################,,             
                       ,#########################################, ''#####,          
                    ,#############################################,,   '####,        
                  ,##################################################,,,,####,       
                ,###########''''           ''''###############################       
              ,#####''   ,,,,##########,,,,          '''####'''          '####       
            ,##' ,,,,###########################,,,                        '##       
           ' ,,###''''                  '''############,,,                           
         ,,##''                                '''############,,,,        ,,,,,,###''
      ,#''                                            '''#######################'''  
     '                                                          ''''####''''         
             ,#######,   #######,   ,#######,      ##                                
            ,#'     '#,  ##    ##  ,#'     '#,    #''#        ######   ,####,        
            ##       ##  ##   ,#'  ##            #'  '#       #        #'  '#        
            ##       ##  #######   ##           ,######,      #####,   #    #        
            '#,     ,#'  ##    ##  '#,     ,#' ,#      #,         ##   #,  ,#        
             '#######'   ##     ##  '#######'  #'      '#     #####' # '####'        



                  #######################################################
                  #                        -***-                        #
                  #          Department of theory and spectroscopy      #
                  #    Directorship and core code : Frank Neese         #
                  #        Max Planck Institute fuer Kohlenforschung    #
                  #                Kaiser Wilhelm Platz 1               #
                  #                 D-45470 Muelheim/Ruhr               #
                  #                      Germany                        #
                  #                                                     #
                  #                  All rights reserved                #
                  #                        -***-                        #
                  #######################################################


                         Program Version 5.0.3 -  RELEASE  -


 With contributions from (in alphabetic order):
   Daniel Aravena         : Magnetic Suceptibility
   Michael Atanasov       : Ab Initio Ligand Field Theory (pilot matlab implementation)
   Alexander A. Auer      : GIAO ZORA, VPT2 properties, NMR spectrum
   Ute Becker             : Parallelization
   Giovanni Bistoni       : ED, misc. LED, open-shell LED, HFLD
   Martin Brehm           : Molecular dynamics
   Dmytro Bykov           : SCF Hessian
   Vijay G. Chilkuri      : MRCI spin determinant printing, contributions to CSF-ICE
   Dipayan Datta          : RHF DLPNO-CCSD density
   Achintya Kumar Dutta   : EOM-CC, STEOM-CC
   Dmitry Ganyushin       : Spin-Orbit,Spin-Spin,Magnetic field MRCI
   Miquel Garcia          : C-PCM and meta-GGA Hessian, CC/C-PCM, Gaussian charge scheme
   Yang Guo               : DLPNO-NEVPT2, F12-NEVPT2, CIM, IAO-localization
   Andreas Hansen         : Spin unrestricted coupled pair/coupled cluster methods
   Benjamin Helmich-Paris : MC-RPA, TRAH-SCF, COSX integrals
   Lee Huntington         : MR-EOM, pCC
   Robert Izsak           : Overlap fitted RIJCOSX, COSX-SCS-MP3, EOM
   Marcus Kettner         : VPT2
   Christian Kollmar      : KDIIS, OOCD, Brueckner-CCSD(T), CCSD density, CASPT2, CASPT2-K
   Simone Kossmann        : Meta GGA functionals, TD-DFT gradient, OOMP2, MP2 Hessian
   Martin Krupicka        : Initial AUTO-CI
   Lucas Lang             : DCDCAS
   Marvin Lechner         : AUTO-CI (C++ implementation), FIC-MRCC
   Dagmar Lenk            : GEPOL surface, SMD
   Dimitrios Liakos       : Extrapolation schemes; Compound Job, initial MDCI parallelization
   Dimitrios Manganas     : Further ROCIS development; embedding schemes
   Dimitrios Pantazis     : SARC Basis sets
   Anastasios Papadopoulos: AUTO-CI, single reference methods and gradients
   Taras Petrenko         : DFT Hessian,TD-DFT gradient, ASA, ECA, R-Raman, ABS, FL, XAS/XES, NRVS
   Peter Pinski           : DLPNO-MP2, DLPNO-MP2 Gradient
   Christoph Reimann      : Effective Core Potentials
   Marius Retegan         : Local ZFS, SOC
   Christoph Riplinger    : Optimizer, TS searches, QM/MM, DLPNO-CCSD(T), (RO)-DLPNO pert. Triples
   Tobias Risthaus        : Range-separated hybrids, TD-DFT gradient, RPA, STAB
   Michael Roemelt        : Original ROCIS implementation
   Masaaki Saitow         : Open-shell DLPNO-CCSD energy and density
   Barbara Sandhoefer     : DKH picture change effects
   Avijit Sen             : IP-ROCIS
   Kantharuban Sivalingam : CASSCF convergence, NEVPT2, FIC-MRCI
   Bernardo de Souza      : ESD, SOC TD-DFT
   Georgi Stoychev        : AutoAux, RI-MP2 NMR, DLPNO-MP2 response
   Willem Van den Heuvel  : Paramagnetic NMR
   Boris Wezisla          : Elementary symmetry handling
   Frank Wennmohs         : Technical directorship


 We gratefully acknowledge several colleagues who have allowed us to
 interface, adapt or use parts of their codes:
   Stefan Grimme, W. Hujo, H. Kruse, P. Pracht,  : VdW corrections, initial TS optimization,
                  C. Bannwarth, S. Ehlert          DFT functionals, gCP, sTDA/sTD-DF
   Ed Valeev, F. Pavosevic, A. Kumar             : LibInt (2-el integral package), F12 methods
   Garnet Chan, S. Sharma, J. Yang, R. Olivares  : DMRG
   Ulf Ekstrom                                   : XCFun DFT Library
   Mihaly Kallay                                 : mrcc  (arbitrary order and MRCC methods)
   Jiri Pittner, Ondrej Demel                    : Mk-CCSD
   Frank Weinhold                                : gennbo (NPA and NBO analysis)
   Christopher J. Cramer and Donald G. Truhlar   : smd solvation model
   Lars Goerigk                                  : TD-DFT with DH, B97 family of functionals
   V. Asgeirsson, H. Jonsson                     : NEB implementation
   FAccTs GmbH                                   : IRC, NEB, NEB-TS, DLPNO-Multilevel, CI-OPT
                                                   MM, QMMM, 2- and 3-layer-ONIOM, Crystal-QMMM,
                                                   LR-CPCM, SF, NACMEs, symmetry and pop. for TD-DFT,
                                                   nearIR, NL-DFT gradient (VV10), updates on ESD,
                                                   ML-optimized integration grids
   S Lehtola, MJT Oliveira, MAL Marques          : LibXC Library
   Liviu Ungur et al                             : ANISO software


 Your calculation uses the libint2 library for the computation of 2-el integrals
 For citations please refer to: http://libint.valeyev.net

 Your ORCA version has been built with support for libXC version: 5.1.0
 For citations please refer to: https://tddft.org/programs/libxc/

 This ORCA versions uses:
   CBLAS   interface :  Fast vector & matrix operations
   LAPACKE interface :  Fast linear algebra routines
   SCALAPACK package :  Parallel linear algebra routines
   Shared memory     :  Shared parallel matrices
   BLAS/LAPACK       :  OpenBLAS 0.3.15  USE64BITINT DYNAMIC_ARCH NO_AFFINITY Zen SINGLE_THREADED
        Core in use  :  Zen
   Copyright (c) 2011-2014, The OpenBLAS Project


================================================================================

----- Orbital basis set information -----
Your calculation utilizes the basis: def2-SVP
   F. Weigend and R. Ahlrichs, Phys. Chem. Chem. Phys. 7, 3297 (2005).

================================================================================
                                        WARNINGS
                       Please study these warnings very carefully!
================================================================================


INFO   : the flag for use of the SHARK integral package has been found!

================================================================================
                                       INPUT FILE
================================================================================
NAME = ./ZINC000000000016/ZINC000000000016.inp
|  1> !RHF def2-SVP TightSCF PAL16 
|  2> *xyz 0 1
|  3> C -4.079489022066845 0.5360804856369301 -2.9269160232272164
|  4> C -4.0397688581440825 0.006764233209377567 -1.5017619835798315
|  5> C -5.457871206949396 -0.24124690010122896 -0.987995555361007
|  6> O -3.2883136563401396 -1.200413947692347 -1.469525014955115
|  7> C -2.6884903906312814 -1.2122955769004122 -0.17554673387918054
|  8> C -1.3183419684989715 -1.8451112937299898 -0.22541726561025469
|  9> C -0.39952031998365084 -0.7478793541662364 -0.788875329446555
| 10> C 1.1266171018837097 -1.0670293182830521 -0.6081435236188859
| 11> C 1.4817307708559337 -2.095664025402717 0.48735706405380136
| 12> C 2.9759604545860334 -2.419438997676402 0.5548669112559614
| 13> F 3.1652588600729876 -3.235347331920167 1.6327961561259312
| 14> C 3.8199189846741723 -1.177828174921912 0.6557043450443918
| 15> C 4.742121310257192 -1.0324296335841645 1.6250691634092076
| 16> C 5.541417906101362 0.20490238559374116 1.7622262198239145
| 17> O 6.409603337357931 0.3094221490759743 2.619363583975207
| 18> C 5.253895902336796 1.3108966971554514 0.824524994104766
| 19> C 4.337030927530747 1.1711394363257965 -0.14278336788624302
| 20> C 3.526765256210095 -0.09861893343727063 -0.3862660211083657
| 21> C 4.02237072553581 -0.6152821762769394 -1.7642595709062787
| 22> C 1.979429556172005 0.21332282076689996 -0.4376319631746943
| 23> F 1.7866932819730559 0.9382036345968224 -1.5950662988905688
| 24> C 1.430601645163516 1.0885753931973878 0.74366135661619
| 25> O 2.1685623477324016 0.9399080778764074 1.9585238596321395
| 26> C -0.07239145362894911 0.9082576126580509 1.05451489639015
| 27> C -0.9486466799909482 0.5841574327914169 -0.16992017616149868
| 28> C -0.9051479489887586 1.7787534305809336 -1.1504410157982488
| 29> C -2.4626075728163777 0.2532705429224165 0.17943623529073355
| 30> C -2.8408968326644826 0.5205870231852249 1.6404575147227232
| 31> O -2.7191401565386477 -0.3389077287278642 2.520150124427314
| 32> C -3.35143072938005 1.9158408343754312 1.9836110776624905
| 33> O -3.2487409608741697 2.1732567742979807 3.375957372939871
| 34> O -3.400253571020585 0.9628234163360554 -0.6499013978777644
| 35> H -4.590907586747334 -0.16187445150249474 -3.5967485415377936
| 36> H -3.0669667176681457 0.6672400235942896 -3.321662975602769
| 37> H -4.577011098005406 1.5097931160136462 -2.9761308464660257
| 38> H -5.966431252215427 -1.0053840074591056 -1.5860809285772504
| 39> H -5.448356992994963 -0.5958646041828406 0.04907737798895611
| 40> H -6.0492801664015765 0.6807304347777395 -1.0030342883856864
| 41> H -3.354187083382928 -1.7576158693361037 0.5035095036031095
| 42> H -1.2936883327179716 -2.7385910683599417 -0.8575314671247619
| 43> H -1.0404740965898627 -2.120400272025742 0.7962269089351334
| 44> H -0.5825104981030665 -0.6970236240414347 -1.8723282742401284
| 45> H 1.4094821858467026 -1.5347867789976963 -1.561438162577484
| 46> H 1.1498551329355966 -1.7512213768428775 1.4729286953202607
| 47> H 0.9593802705588347 -3.0418437823674176 0.30569865598444146
| 48> H 3.2727064819419143 -2.997514868939389 -0.32653579526827653
| 49> H 4.941404473191006 -1.7996856020537522 2.3648781393451355
| 50> H 5.816969585011132 2.2253350690939713 0.9693162382503469
| 51> H 4.153153828971896 2.0121731712819138 -0.8101034214755628
| 52> H 3.8438723980756304 0.12261098726322717 -2.55655645954271
| 53> H 3.5324922419251337 -1.5427716389086026 -2.0760380529151354
| 54> H 5.101481488501886 -0.8184442082218601 -1.7488629873625425
| 55> H 1.5766082603182905 2.1360252336146717 0.449217674523019
| 56> H 1.6473665374712085 0.4633762129342067 2.6266310399207566
| 57> H -0.42185693987419065 1.8224870108019668 1.5511235249640951
| 58> H -0.1892726457480728 0.11639345487222459 1.8052468915754252
| 59> H -1.4868754357827239 2.621343903708498 -0.7569842160127489
| 60> H -1.316038311655902 1.5107186455972839 -2.1277496653389623
| 61> H 0.0928470627563534 2.1753298335387954 -1.3298191889660234
| 62> H -2.761316957516384 2.6709201347029037 1.4582984919822728
| 63> H -4.400569560378163 1.9953117342315283 1.6879246883747667
| 64> H -3.498803311647923 1.3445641994504929 3.829757806633398
| 65> *
| 66> 
| 67>                          ****END OF INPUT****
================================================================================

                       ****************************
                       * Single Point Calculation *
                       ****************************

---------------------------------
CARTESIAN COORDINATES (ANGSTROEM)
---------------------------------
  C     -4.079489    0.536080   -2.926916
  C     -4.039769    0.006764   -1.501762
  C     -5.457871   -0.241247   -0.987996
  O     -3.288314   -1.200414   -1.469525
  C     -2.688490   -1.212296   -0.175547
  C     -1.318342   -1.845111   -0.225417
  C     -0.399520   -0.747879   -0.788875
  C      1.126617   -1.067029   -0.608144
  C      1.481731   -2.095664    0.487357
  C      2.975960   -2.419439    0.554867
  F      3.165259   -3.235347    1.632796
  C      3.819919   -1.177828    0.655704
  C      4.742121   -1.032430    1.625069
  C      5.541418    0.204902    1.762226
  O      6.409603    0.309422    2.619364
  C      5.253896    1.310897    0.824525
  C      4.337031    1.171139   -0.142783
  C      3.526765   -0.098619   -0.386266
  C      4.022371   -0.615282   -1.764260
  C      1.979430    0.213323   -0.437632
  F      1.786693    0.938204   -1.595066
  C      1.430602    1.088575    0.743661
  O      2.168562    0.939908    1.958524
  C     -0.072391    0.908258    1.054515
  C     -0.948647    0.584157   -0.169920
  C     -0.905148    1.778753   -1.150441
  C     -2.462608    0.253271    0.179436
  C     -2.840897    0.520587    1.640458
  O     -2.719140   -0.338908    2.520150
  C     -3.351431    1.915841    1.983611
  O     -3.248741    2.173257    3.375957
  O     -3.400254    0.962823   -0.649901
  H     -4.590908   -0.161874   -3.596749
  H     -3.066967    0.667240   -3.321663
  H     -4.577011    1.509793   -2.976131
  H     -5.966431   -1.005384   -1.586081
  H     -5.448357   -0.595865    0.049077
  H     -6.049280    0.680730   -1.003034
  H     -3.354187   -1.757616    0.503510
  H     -1.293688   -2.738591   -0.857531
  H     -1.040474   -2.120400    0.796227
  H     -0.582510   -0.697024   -1.872328
  H      1.409482   -1.534787   -1.561438
  H      1.149855   -1.751221    1.472929
  H      0.959380   -3.041844    0.305699
  H      3.272706   -2.997515   -0.326536
  H      4.941404   -1.799686    2.364878
  H      5.816970    2.225335    0.969316
  H      4.153154    2.012173   -0.810103
  H      3.843872    0.122611   -2.556556
  H      3.532492   -1.542772   -2.076038
  H      5.101481   -0.818444   -1.748863
  H      1.576608    2.136025    0.449218
  H      1.647367    0.463376    2.626631
  H     -0.421857    1.822487    1.551124
  H     -0.189273    0.116393    1.805247
  H     -1.486875    2.621344   -0.756984
  H     -1.316038    1.510719   -2.127750
  H      0.092847    2.175330   -1.329819
  H     -2.761317    2.670920    1.458298
  H     -4.400570    1.995312    1.687925
  H     -3.498803    1.344564    3.829758

----------------------------
CARTESIAN COORDINATES (A.U.)
----------------------------
  NO LB      ZA    FRAG     MASS         X           Y           Z
   0 C     6.0000    0    12.011   -7.709117    1.013045   -5.531070
   1 C     6.0000    0    12.011   -7.634057    0.012783   -2.837919
   2 C     6.0000    0    12.011  -10.313882   -0.455891   -1.867041
   3 O     8.0000    0    15.999   -6.214012   -2.268454   -2.777000
   4 C     6.0000    0    12.011   -5.080511   -2.290907   -0.331735
   5 C     6.0000    0    12.011   -2.491305   -3.486755   -0.425977
   6 C     6.0000    0    12.011   -0.754984   -1.413287   -1.490758
   7 C     6.0000    0    12.011    2.128998   -2.016393   -1.149225
   8 C     6.0000    0    12.011    2.800065   -3.960231    0.920971
   9 C     6.0000    0    12.011    5.623750   -4.572077    1.048547
  10 F     9.0000    0    18.998    5.981472   -6.113920    3.085538
  11 C     6.0000    0    12.011    7.218601   -2.225773    1.239102
  12 C     6.0000    0    12.011    8.961311   -1.951009    3.070936
  13 C     6.0000    0    12.011   10.471762    0.387209    3.330125
  14 O     8.0000    0    15.999   12.112395    0.584723    4.949880
  15 C     6.0000    0    12.011    9.928424    2.477236    1.558126
  16 C     6.0000    0    12.011    8.195801    2.213133   -0.269821
  17 C     6.0000    0    12.011    6.664620   -0.186363   -0.729937
  18 C     6.0000    0    12.011    7.601179   -1.162715   -3.333967
  19 C     6.0000    0    12.011    3.740580    0.403122   -0.827005
  20 F     9.0000    0    18.998    3.376361    1.772948   -3.014238
  21 C     6.0000    0    12.011    2.703445    2.057109    1.405316
  22 O     8.0000    0    15.999    4.097989    1.776169    3.701074
  23 C     6.0000    0    12.011   -0.136800    1.716358    1.992744
  24 C     6.0000    0    12.011   -1.792682    1.103898   -0.321103
  25 C     6.0000    0    12.011   -1.710482    3.361357   -2.174018
  26 C     6.0000    0    12.011   -4.653654    0.478612    0.339085
  27 C     6.0000    0    12.011   -5.368517    0.983767    3.100015
  28 O     8.0000    0    15.999   -5.138430   -0.640443    4.762394
  29 C     6.0000    0    12.011   -6.333286    3.620414    3.748482
  30 O     8.0000    0    15.999   -6.139231    4.106860    6.379635
  31 O     8.0000    0    15.999   -6.425548    1.819473   -1.228136
  32 H     1.0000    0     1.008   -8.675558   -0.305898   -6.796870
  33 H     1.0000    0     1.008   -5.795727    1.260901   -6.277033
  34 H     1.0000    0     1.008   -8.649297    2.853096   -5.624072
  35 H     1.0000    0     1.008  -11.274921   -1.899900   -2.997259
  36 H     1.0000    0     1.008  -10.295903   -1.126021    0.092743
  37 H     1.0000    0     1.008  -11.431483    1.286394   -1.895460
  38 H     1.0000    0     1.008   -6.338495   -3.321413    0.951495
  39 H     1.0000    0     1.008   -2.444717   -5.175187   -1.620500
  40 H     1.0000    0     1.008   -1.966211   -4.006976    1.504651
  41 H     1.0000    0     1.008   -1.100785   -1.317184   -3.538188
  42 H     1.0000    0     1.008    2.663535   -2.900327   -2.950691
  43 H     1.0000    0     1.008    2.172911   -3.309329    2.783432
  44 H     1.0000    0     1.008    1.812966   -5.748252    0.577687
  45 H     1.0000    0     1.008    6.184519   -5.664482   -0.617063
  46 H     1.0000    0     1.008    9.337901   -3.400913    4.468972
  47 H     1.0000    0     1.008   10.992479    4.205274    1.831742
  48 H     1.0000    0     1.008    7.848323    3.802456   -1.530874
  49 H     1.0000    0     1.008    7.263866    0.231701   -4.831192
  50 H     1.0000    0     1.008    6.675443   -2.915416   -3.923143
  51 H     1.0000    0     1.008    9.640403   -1.546635   -3.304872
  52 H     1.0000    0     1.008    2.979358    4.036503    0.848898
  53 H     1.0000    0     1.008    3.113072    0.875654    4.963613
  54 H     1.0000    0     1.008   -0.797194    3.444001    2.931199
  55 H     1.0000    0     1.008   -0.357673    0.219952    3.411422
  56 H     1.0000    0     1.008   -2.809787    4.953622   -1.430493
  57 H     1.0000    0     1.008   -2.486952    2.854845   -4.020864
  58 H     1.0000    0     1.008    0.175456    4.110778   -2.512994
  59 H     1.0000    0     1.008   -5.218133    5.047308    2.755785
  60 H     1.0000    0     1.008   -8.315871    3.770593    3.189715
  61 H     1.0000    0     1.008   -6.611780    2.540858    7.237193

--------------------------------
INTERNAL COORDINATES (ANGSTROEM)
--------------------------------
 C      0   0   0     0.000000000000     0.00000000     0.00000000
 C      1   0   0     1.520794997108     0.00000000     0.00000000
 C      2   1   0     1.528554786947   110.31714427     0.00000000
 O      2   1   3     1.422323206205   109.29569121   121.27964943
 C      4   2   1     1.426292016066   104.46687825   148.77492607
 C      5   4   2     1.510049502524   110.80043042   214.54311934
 C      6   5   4     1.538062463192   104.78445392    78.66255972
 C      7   6   5     1.569591066379   113.17947719   166.20365391
 C      8   7   6     1.544123251613   116.15207441   339.17066229
 C      9   8   7     1.530395425986   113.37667033   176.66911035
 F     10   9   8     1.365090382778   107.25814165   174.50401921
 C     10   9   8     1.504669938472   112.08727796    52.11097875
 C     12  10   9     1.345832833682   121.45022829   127.54962875
 C     13  12  10     1.479418004465   121.82640359   182.29947371
 O     14  13  12     1.224481435151   121.28913822   182.51923076
 C     14  13  12     1.478234050674   117.50721885     2.45899436
 C     16  14  13     1.340096616352   120.85892743   357.54426595
 C     17  16  14     1.525811449074   124.42300457   359.40653063
 C     18  17  16     1.552878588626   104.41840321   246.69169982
 C      8   7   6     1.547793550317   112.34715614   210.93939251
 F     20   8   7     1.379222138433   105.38559790   299.58328565
 C     20   8   7     1.569309736423   110.58479185    54.69028009
 O     22  20   8     1.429188185795   113.65732020   100.14350447
 C     22  20   8     1.545358430975   115.24421905   333.86708327
 C     24  22  20     1.540164080613   114.70685938   327.76998913
 C     25  24  22     1.546083068433   109.00125747   296.34462570
 C      5   4   2     1.524768837351   105.39711414   328.80608259
 C     27   5   4     1.532691764084   110.67085001   137.57334765
 O     28  27   5     1.235886323379   122.20148533    31.33188630
 C     28  27   5     1.524838491479   117.17716681   209.96777312
 O     30  28  27     1.419660649823   111.24811581   199.17096787
 O      2   1   3     1.431326455278   109.68890253   240.12325887
 H      1   2   3     1.094242041398   111.33682640   301.59785375
 H      1   2   3     1.094636651000   110.82318211   182.95477067
 H      1   2   3     1.094562287596   111.32336954    63.59446918
 H      3   2   1     1.095556914148   111.12094574    62.34242094
 H      3   2   1     1.096067746721   111.25153090   181.64605910
 H      3   2   1     1.095460143886   111.08119487   300.55185016
 H      5   4   2     1.096195092922   108.10470835    92.35274820
 H      6   5   4     1.094752151487   112.42820124   318.08877058
 H      6   5   4     1.093961331672   107.76315604   197.75850676
 H      7   6   5     1.099973633392   107.12408831   283.32264776
 H      8   7   6     1.098899616183   103.70619615    94.79474888
 H      9   8   7     1.095506101101   111.04793848   299.55272039
 H      9   8   7     1.095949795781   110.35993047    56.83996787
 H     10   9   8     1.095034542266   109.92362176   289.79617298
 H     13  12  10     1.084302919417   122.74661085     1.34443399
 H     16  14  13     1.083611559820   116.45855734   177.25553801
 H     17  16  14     1.089249551127   118.50204112   179.77223057
 H     19  18  17     1.097306854735   111.41186989   299.85926154
 H     19  18  17     1.094268456020   113.07642609   179.37363589
 H     19  18  17     1.098176627305   111.26748106    59.32708790
 H     22  20   8     1.097800611124   106.48361998   215.23210241
 H     23  22  20     0.972159912408   110.99844569   250.34455478
 H     24  22  20     1.097525238198   107.66821745   204.03528550
 H     24  22  20     1.097409944393   108.98921567    90.73568331
 H     26  25  24     1.096892805881   110.55577060   287.03820381
 H     26  25  24     1.093529026849   111.52062636   166.82045451
 H     26  25  24     1.088780701455   114.31207557    45.75415263
 H     30  28  27     1.092855125897   110.07464129   318.70263351
 H     30  28  27     1.092903633191   109.09010553    79.19023421
 H     31  30  28     0.977342005903   106.44747480   320.35515376

---------------------------
INTERNAL COORDINATES (A.U.)
---------------------------
 C      0   0   0     0.000000000000     0.00000000     0.00000000
 C      1   0   0     2.873886050372     0.00000000     0.00000000
 C      2   1   0     2.888549928024   110.31714427     0.00000000
 O      2   1   3     2.687801333648   109.29569121   121.27964943
 C      4   2   1     2.695301297364   104.46687825   148.77492607
 C      5   4   2     2.853580008435   110.80043042   214.54311934
 C      6   5   4     2.906516832298   104.78445392    78.66255972
 C      7   6   5     2.966097257706   113.17947719   166.20365391
 C      8   7   6     2.917970062569   116.15207441   339.17066229
 C      9   8   7     2.892028231720   113.37667033   176.66911035
 F     10   9   8     2.579646971501   107.25814165   174.50401921
 C     10   9   8     2.843414105657   112.08727796    52.11097875
 C     12  10   9     2.543255477699   121.45022829   127.54962875
 C     13  12  10     2.795694866031   121.82640359   182.29947371
 O     14  13  12     2.313934568506   121.28913822   182.51923076
 C     14  13  12     2.793457517610   117.50721885     2.45899436
 C     16  14  13     2.532415597900   120.85892743   357.54426595
 C     17  16  14     2.883365770751   124.42300457   359.40653063
 C     18  17  16     2.934515251733   104.41840321   246.69169982
 C      8   7   6     2.924905921950   112.34715614   210.93939251
 F     20   8   7     2.606352119480   105.38559790   299.58328565
 C     20   8   7     2.965565621135   110.58479185    54.69028009
 O     22  20   8     2.700774264988   113.65732020   100.14350447
 C     22  20   8     2.920304213290   115.24421905   333.86708327
 C     24  22  20     2.910488313661   114.70685938   327.76998913
 C     25  24  22     2.921673579631   109.00125747   296.34462570
 C      5   4   2     2.881395520131   105.39711414   328.80608259
 C     27   5   4     2.896367681835   110.67085001   137.57334765
 O     28  27   5     2.335486683846   122.20148533    31.33188630
 C     28  27   5     2.881527147356   117.17716681   209.96777312
 O     30  28  27     2.682769831269   111.24811581   199.17096787
 O      2   1   3     2.704815008711   109.68890253   240.12325887
 H      1   2   3     2.067817782466   111.33682640   301.59785375
 H      1   2   3     2.068563486542   110.82318211   182.95477067
 H      1   2   3     2.068422960075   111.32336954    63.59446918
 H      3   2   1     2.070302531864   111.12094574    62.34242094
 H      3   2   1     2.071267865527   111.25153090   181.64605910
 H      3   2   1     2.070119662570   111.08119487   300.55185016
 H      5   4   2     2.071508514971   108.10470835    92.35274820
 H      6   5   4     2.068781750832   112.42820124   318.08877058
 H      6   5   4     2.067287317959   107.76315604   197.75850676
 H      7   6   5     2.078648921644   107.12408831   283.32264776
 H      8   7   6     2.076619323257   103.70619615    94.79474888
 H      9   8   7     2.070206509120   111.04793848   299.55272039
 H      9   8   7     2.071044970553   110.35993047    56.83996787
 H     10   9   8     2.069315392067   109.92362176   289.79617298
 H     13  12  10     2.049035563910   122.74661085     1.34443399
 H     16  14  13     2.047729083611   116.45855734   177.25553801
 H     17  16  14     2.058383343127   118.50204112   179.77223057
 H     19  18  17     2.073609440324   111.41186989   299.85926154
 H     19  18  17     2.067867698867   113.07642609   179.37363589
 H     19  18  17     2.075253072279   111.26748106    59.32708790
 H     22  20   8     2.074542504675   106.48361998   215.23210241
 H     23  22  20     1.837115992827   110.99844569   250.34455478
 H     24  22  20     2.074022125261   107.66821745   204.03528550
 H     24  22  20     2.073804251544   108.98921567    90.73568331
 H     26  25  24     2.072827001384   110.55577060   287.03820381
 H     26  25  24     2.066470380238   111.52062636   166.82045451
 H     26  25  24     2.057497345648   114.31207557    45.75415263
 H     30  28  27     2.065196891998   110.07464129   318.70263351
 H     30  28  27     2.065288557498   109.09010553    79.19023421
 H     31  30  28     1.846908730334   106.44747480   320.35515376

---------------------
BASIS SET INFORMATION
---------------------
There are 4 groups of distinct atoms

 Group   1 Type C   : 7s4p1d contracted to 3s2p1d pattern {511/31/1}
 Group   2 Type O   : 7s4p1d contracted to 3s2p1d pattern {511/31/1}
 Group   3 Type F   : 7s4p1d contracted to 3s2p1d pattern {511/31/1}
 Group   4 Type H   : 4s1p contracted to 2s1p pattern {31/1}

Atom   0C    basis set group =>   1
Atom   1C    basis set group =>   1
Atom   2C    basis set group =>   1
Atom   3O    basis set group =>   2
Atom   4C    basis set group =>   1
Atom   5C    basis set group =>   1
Atom   6C    basis set group =>   1
Atom   7C    basis set group =>   1
Atom   8C    basis set group =>   1
Atom   9C    basis set group =>   1
Atom  10F    basis set group =>   3
Atom  11C    basis set group =>   1
Atom  12C    basis set group =>   1
Atom  13C    basis set group =>   1
Atom  14O    basis set group =>   2
Atom  15C    basis set group =>   1
Atom  16C    basis set group =>   1
Atom  17C    basis set group =>   1
Atom  18C    basis set group =>   1
Atom  19C    basis set group =>   1
Atom  20F    basis set group =>   3
Atom  21C    basis set group =>   1
Atom  22O    basis set group =>   2
Atom  23C    basis set group =>   1
Atom  24C    basis set group =>   1
Atom  25C    basis set group =>   1
Atom  26C    basis set group =>   1
Atom  27C    basis set group =>   1
Atom  28O    basis set group =>   2
Atom  29C    basis set group =>   1
Atom  30O    basis set group =>   2
Atom  31O    basis set group =>   2
Atom  32H    basis set group =>   4
Atom  33H    basis set group =>   4
Atom  34H    basis set group =>   4
Atom  35H    basis set group =>   4
Atom  36H    basis set group =>   4
Atom  37H    basis set group =>   4
Atom  38H    basis set group =>   4
Atom  39H    basis set group =>   4
Atom  40H    basis set group =>   4
Atom  41H    basis set group =>   4
Atom  42H    basis set group =>   4
Atom  43H    basis set group =>   4
Atom  44H    basis set group =>   4
Atom  45H    basis set group =>   4
Atom  46H    basis set group =>   4
Atom  47H    basis set group =>   4
Atom  48H    basis set group =>   4
Atom  49H    basis set group =>   4
Atom  50H    basis set group =>   4
Atom  51H    basis set group =>   4
Atom  52H    basis set group =>   4
Atom  53H    basis set group =>   4
Atom  54H    basis set group =>   4
Atom  55H    basis set group =>   4
Atom  56H    basis set group =>   4
Atom  57H    basis set group =>   4
Atom  58H    basis set group =>   4
Atom  59H    basis set group =>   4
Atom  60H    basis set group =>   4
Atom  61H    basis set group =>   4


           ************************************************************
           *        Program running with 16 parallel MPI-processes    *
           *              working on a common directory               *
           ************************************************************
------------------------------------------------------------------------------
                           ORCA GTO INTEGRAL CALCULATION
------------------------------------------------------------------------------
------------------------------------------------------------------------------
                   ___                                                        
                  /   \      - P O W E R E D   B Y -                         
                 /     \                                                     
                 |  |  |   _    _      __       _____    __    __             
                 |  |  |  | |  | |    /  \     |  _  \  |  |  /  |          
                  \  \/   | |  | |   /    \    | | | |  |  | /  /          
                 / \  \   | |__| |  /  /\  \   | |_| |  |  |/  /          
                |  |  |   |  __  | /  /__\  \  |    /   |      \           
                |  |  |   | |  | | |   __   |  |    \   |  |\   \          
                \     /   | |  | | |  |  |  |  | |\  \  |  | \   \       
                 \___/    |_|  |_| |__|  |__|  |_| \__\ |__|  \__/        
                                                                              
                      - O R C A' S   B I G   F R I E N D -                    
                                      &                                       
                       - I N T E G R A L  F E E D E R -                       
                                                                              
 v1 FN, 2020, v2 2021                                                         
------------------------------------------------------------------------------


Reading SHARK input file ./ZINC000000000016/ZINC000000000016.SHARKINP.tmp ... ok
----------------------
SHARK INTEGRAL PACKAGE
----------------------

Number of atoms                             ...     62
Number of basis functions                   ...    598
Number of shells                            ...    282
Maximum angular momentum                    ...      2
Integral batch strategy                     ... SHARK/LIBINT Hybrid
RI-J (if used) integral strategy            ... SPLIT-RIJ (Revised 2003 algorithm where possible)
Printlevel                                  ...      1
Contraction scheme used                     ... SEGMENTED contraction
Coulomb Range Separation                    ... NOT USED
Exchange Range Separation                   ... NOT USED
Finite Nucleus Model                        ... NOT USED
Auxiliary Coulomb fitting basis             ... NOT available
Auxiliary J/K fitting basis                 ... NOT available
Auxiliary Correlation fitting basis         ... NOT available
Auxiliary 'external' fitting basis          ... NOT available
Integral threshold                          ...     2.500000e-11
Primitive cut-off                           ...     2.500000e-12
Primitive pair pre-selection threshold      ...     2.500000e-12

Calculating pre-screening integrals         ... done (  0.0 sec) Dimension = 282
Organizing shell pair data                  ... done (  0.1 sec)
Shell pair information
Total number of shell pairs                 ...     39903
Shell pairs after pre-screening             ...     27571
Total number of primitive shell pairs       ...    143351
Primitive shell pairs kept                  ...     61445
          la=0 lb=0:   8829 shell pairs
          la=1 lb=0:  10376 shell pairs
          la=1 lb=1:   3098 shell pairs
          la=2 lb=0:   3159 shell pairs
          la=2 lb=1:   1838 shell pairs
          la=2 lb=2:    271 shell pairs

Calculating one electron integrals          ... done (  0.0 sec)
Calculating Nuclear repulsion               ... done (  0.0 sec) ENN=   3733.865377824940 Eh

SHARK setup successfully completed in   0.4 seconds

Maximum memory used throughout the entire GTOINT-calculation: 39.8 MB


           ************************************************************
           *        Program running with 16 parallel MPI-processes    *
           *              working on a common directory               *
           ************************************************************
-------------------------------------------------------------------------------
                                 ORCA SCF
-------------------------------------------------------------------------------

------------
SCF SETTINGS
------------
Hamiltonian:
 Ab initio Hamiltonian  Method          .... Hartree-Fock(GTOs)


General Settings:
 Integral files         IntName         .... ./ZINC000000000016/ZINC000000000016
 Hartree-Fock type      HFTyp           .... RHF
 Total Charge           Charge          ....    0
 Multiplicity           Mult            ....    1
 Number of Electrons    NEL             ....  240
 Basis Dimension        Dim             ....  598
 Nuclear Repulsion      ENuc            ....   3733.8653778249 Eh

Convergence Acceleration:
 DIIS                   CNVDIIS         .... on
   Start iteration      DIISMaxIt       ....    12
   Startup error        DIISStart       ....  0.200000
   # of expansion vecs  DIISMaxEq       ....     5
   Bias factor          DIISBfac        ....   1.050
   Max. coefficient     DIISMaxC        ....  10.000
 Trust-Rad. Augm. Hess. CNVTRAH         .... auto
   Auto Start mean grad. ratio tolernc. ....  1.125000
   Auto Start start iteration           ....    20
   Auto Start num. interpolation iter.  ....    10
   Max. Number of Micro iterations      ....    16
   Max. Number of Macro iterations      .... Maxiter - #DIIS iter
   Number of Davidson start vectors     ....     2
   Converg. threshold I  (grad. norm)   ....   1.000e-05
   Converg. threshold II (energy diff.) ....   1.000e-08
   Grad. Scal. Fac. for Micro threshold ....   0.100
   Minimum threshold for Micro iter.    ....   0.010
   NR start threshold (gradient norm)   ....   0.001
   Initial trust radius                 ....   0.400
   Minimum AH scaling param. (alpha)    ....   1.000
   Maximum AH scaling param. (alpha)    .... 1000.000
   Orbital update algorithm             .... Taylor
   White noise on init. David. guess    .... on
   Maximum white noise                  ....   0.010
   Quad. conv. algorithm                .... NR
 SOSCF                  CNVSOSCF        .... on
   Start iteration      SOSCFMaxIt      ....   150
   Startup grad/error   SOSCFStart      ....  0.003300
 Level Shifting         CNVShift        .... on
   Level shift para.    LevelShift      ....    0.2500
   Turn off err/grad.   ShiftErr        ....    0.0010
 Zerner damping         CNVZerner       .... off
 Static damping         CNVDamp         .... on
   Fraction old density DampFac         ....    0.7000
   Max. Damping (<1)    DampMax         ....    0.9800
   Min. Damping (>=0)   DampMin         ....    0.0000
   Turn off err/grad.   DampErr         ....    0.1000
 Fernandez-Rico         CNVRico         .... off

SCF Procedure:
 Maximum # iterations   MaxIter         ....   125
 SCF integral mode      SCFMode         .... Direct
   Integral package                     .... SHARK and LIBINT hybrid scheme
 Reset frequency        DirectResetFreq ....    20
 Integral Threshold     Thresh          ....  2.500e-11 Eh
 Primitive CutOff       TCut            ....  2.500e-12 Eh

Convergence Tolerance:
 Convergence Check Mode ConvCheckMode   .... Total+1el-Energy
 Convergence forced     ConvForced      .... 0
 Energy Change          TolE            ....  1.000e-08 Eh
 1-El. energy change                    ....  1.000e-05 Eh
 Orbital Gradient       TolG            ....  1.000e-05
 Orbital Rotation angle TolX            ....  1.000e-05
 DIIS Error             TolErr          ....  5.000e-07


Diagonalization of the overlap matrix:
Smallest eigenvalue                        ... 2.531e-04
Time for diagonalization                   ...    0.052 sec
Threshold for overlap eigenvalues          ... 1.000e-08
Number of eigenvalues below threshold      ... 0
Time for construction of square roots      ...    0.031 sec
Total time needed                          ...    0.085 sec

Time for model grid setup =    0.338 sec

------------------------------
INITIAL GUESS: MODEL POTENTIAL
------------------------------
Loading Hartree-Fock densities                     ... done
Calculating cut-offs                               ... done
Initializing the effective Hamiltonian             ... done
Setting up the integral package (SHARK)            ... done
Starting the Coulomb interaction                   ... done (   0.2 sec)
Reading the grid                                   ... done
Mapping shells                                     ... done
Starting the XC term evaluation                    ... done (   0.1 sec)
Transforming the Hamiltonian                       ... done (   0.0 sec)
Diagonalizing the Hamiltonian                      ... done (   0.1 sec)
Back transforming the eigenvectors                 ... done (   0.0 sec)
Now organizing SCF variables                       ... done
                      ------------------
                      INITIAL GUESS DONE (   0.7 sec)
                      ------------------
--------------
SCF ITERATIONS
--------------
ITER       Energy         Delta-E        Max-DP      RMS-DP      [F,P]     Damp
               ***  Starting incremental Fock matrix formation  ***
  0  -1572.0993986489   0.000000000000 0.06958873  0.00141331  0.2326849 0.7000
  1  -1572.4410299048  -0.341631255861 0.04896822  0.00109416  0.1409914 0.7000
                               ***Turning on DIIS***
  2  -1572.6517647626  -0.210734857877 0.11557751  0.00255370  0.0817751 0.0000
  3  -1571.5944849493   1.057279813317 0.04567778  0.00063470  0.0544970 0.0000
  4  -1573.2191556360  -1.624670686696 0.01445377  0.00024109  0.0121047 0.0000
  5  -1573.1054806243   0.113675011708 0.01107673  0.00011185  0.0066998 0.0000
  6  -1573.0945321012   0.010948523073 0.00608574  0.00005637  0.0021880 0.0000
                      *** Initiating the SOSCF procedure ***
                           *** Shutting down DIIS ***
                      *** Re-Reading the Fockian *** 
                      *** Removing any level shift *** 
ITER      Energy       Delta-E        Grad      Rot      Max-DP    RMS-DP
  7  -1573.11213874  -0.0176066375  0.002295  0.002295  0.004821  0.000038
               *** Restarting incremental Fock matrix formation ***
  8  -1573.10464694   0.0074917947  0.000534  0.001197  0.001923  0.000012
  9  -1573.10465254  -0.0000055933  0.000406  0.001928  0.001921  0.000013
 10  -1573.10465513  -0.0000025906  0.000071  0.000138  0.000123  0.000001
 11  -1573.10465522  -0.0000000878  0.000018  0.000054  0.000031  0.000001
 12  -1573.10465524  -0.0000000197  0.000006  0.000016  0.000036  0.000000
                  ***Gradient check signals convergence***
              ***Rediagonalizing the Fockian in SOSCF/NRSCF***

               *****************************************************
               *                     SUCCESS                       *
               *           SCF CONVERGED AFTER  13 CYCLES          *
               *****************************************************


----------------
TOTAL SCF ENERGY
----------------

Total Energy       :        -1573.10465524 Eh          -42806.35390 eV

Components:
Nuclear Repulsion  :         3733.86537782 Eh          101603.64236 eV
Electronic Energy  :        -5306.97003306 Eh         -144409.99626 eV
One Electron Energy:        -9588.52081651 Eh         -260916.91618 eV
Two Electron Energy:         4281.55078345 Eh          116506.91992 eV

Virial components:
Potential Energy   :        -3139.45741129 Eh          -85428.97929 eV
Kinetic Energy     :         1566.35275606 Eh           42622.62538 eV
Virial Ratio       :            2.00431059


---------------
SCF CONVERGENCE
---------------

  Last Energy change         ...   -1.6862e-09  Tolerance :   1.0000e-08
  Last MAX-Density change    ...    1.3310e-05  Tolerance :   1.0000e-07
  Last RMS-Density change    ...    9.6133e-08  Tolerance :   5.0000e-09
  Last Orbital Gradient      ...    1.4518e-06  Tolerance :   1.0000e-05
  Last Orbital Rotation      ...    4.7106e-06  Tolerance :   1.0000e-05

             **** THE GBW FILE WAS UPDATED (./ZINC000000000016/ZINC000000000016.gbw) ****
             **** DENSITY ./ZINC000000000016/ZINC000000000016.scfp WAS UPDATED ****
             **** ENERGY FILE WAS UPDATED (./ZINC000000000016/ZINC000000000016.en.tmp) ****
             **** THE GBW FILE WAS UPDATED (./ZINC000000000016/ZINC000000000016.gbw) ****
             **** DENSITY ./ZINC000000000016/ZINC000000000016.scfp WAS UPDATED ****
----------------
ORBITAL ENERGIES
----------------

  NO   OCC          E(Eh)            E(eV) 
   0   2.0000     -26.299204      -715.6377 
   1   2.0000     -26.286586      -715.2944 
   2   2.0000     -20.589300      -560.2633 
   3   2.0000     -20.582207      -560.0703 
   4   2.0000     -20.581200      -560.0429 
   5   2.0000     -20.569525      -559.7252 
   6   2.0000     -20.559898      -559.4633 
   7   2.0000     -20.523637      -558.4766 
   8   2.0000     -11.366812      -309.3067 
   9   2.0000     -11.361240      -309.1551 
  10   2.0000     -11.350236      -308.8556 
  11   2.0000     -11.336967      -308.4946 
  12   2.0000     -11.328765      -308.2714 
  13   2.0000     -11.321713      -308.0795 
  14   2.0000     -11.314476      -307.8825 
  15   2.0000     -11.307671      -307.6974 
  16   2.0000     -11.305403      -307.6357 
  17   2.0000     -11.288089      -307.1645 
  18   2.0000     -11.277697      -306.8817 
  19   2.0000     -11.273096      -306.7565 
  20   2.0000     -11.268819      -306.6402 
  21   2.0000     -11.266105      -306.5663 
  22   2.0000     -11.260722      -306.4198 
  23   2.0000     -11.259353      -306.3826 
  24   2.0000     -11.259287      -306.3808 
  25   2.0000     -11.251703      -306.1744 
  26   2.0000     -11.246684      -306.0378 
  27   2.0000     -11.240359      -305.8657 
  28   2.0000     -11.239819      -305.8510 
  29   2.0000     -11.239636      -305.8461 
  30   2.0000     -11.238051      -305.8029 
  31   2.0000     -11.232186      -305.6433 
  32   2.0000      -1.603337       -43.6290 
  33   2.0000      -1.590482       -43.2792 
  34   2.0000      -1.453187       -39.5432 
  35   2.0000      -1.401309       -38.1316 
  36   2.0000      -1.360341       -37.0168 
  37   2.0000      -1.349411       -36.7194 
  38   2.0000      -1.346187       -36.6316 
  39   2.0000      -1.343500       -36.5585 
  40   2.0000      -1.180886       -32.1335 
  41   2.0000      -1.163072       -31.6488 
  42   2.0000      -1.105415       -30.0799 
  43   2.0000      -1.080547       -29.4032 
  44   2.0000      -1.055854       -28.7313 
  45   2.0000      -1.049861       -28.5682 
  46   2.0000      -1.024763       -27.8852 
  47   2.0000      -1.011512       -27.5246 
  48   2.0000      -0.999942       -27.2098 
  49   2.0000      -0.983577       -26.7645 
  50   2.0000      -0.956535       -26.0286 
  51   2.0000      -0.951574       -25.8936 
  52   2.0000      -0.935185       -25.4477 
  53   2.0000      -0.909387       -24.7457 
  54   2.0000      -0.880478       -23.9590 
  55   2.0000      -0.865389       -23.5484 
  56   2.0000      -0.845440       -23.0056 
  57   2.0000      -0.829981       -22.5849 
  58   2.0000      -0.817440       -22.2437 
  59   2.0000      -0.810831       -22.0638 
  60   2.0000      -0.793583       -21.5945 
  61   2.0000      -0.774285       -21.0694 
  62   2.0000      -0.754329       -20.5263 
  63   2.0000      -0.747208       -20.3326 
  64   2.0000      -0.733259       -19.9530 
  65   2.0000      -0.730938       -19.8898 
  66   2.0000      -0.723081       -19.6760 
  67   2.0000      -0.714639       -19.4463 
  68   2.0000      -0.708793       -19.2872 
  69   2.0000      -0.701997       -19.1023 
  70   2.0000      -0.687227       -18.7004 
  71   2.0000      -0.682517       -18.5722 
  72   2.0000      -0.675302       -18.3759 
  73   2.0000      -0.672771       -18.3070 
  74   2.0000      -0.666069       -18.1247 
  75   2.0000      -0.657117       -17.8811 
  76   2.0000      -0.655669       -17.8417 
  77   2.0000      -0.649349       -17.6697 
  78   2.0000      -0.642677       -17.4881 
  79   2.0000      -0.635806       -17.3012 
  80   2.0000      -0.632928       -17.2228 
  81   2.0000      -0.619652       -16.8616 
  82   2.0000      -0.615502       -16.7487 
  83   2.0000      -0.610647       -16.6165 
  84   2.0000      -0.607990       -16.5442 
  85   2.0000      -0.596476       -16.2309 
  86   2.0000      -0.587100       -15.9758 
  87   2.0000      -0.581504       -15.8235 
  88   2.0000      -0.579804       -15.7773 
  89   2.0000      -0.572438       -15.5768 
  90   2.0000      -0.570187       -15.5156 
  91   2.0000      -0.565021       -15.3750 
  92   2.0000      -0.561027       -15.2663 
  93   2.0000      -0.557231       -15.1630 
  94   2.0000      -0.553531       -15.0624 
  95   2.0000      -0.548790       -14.9333 
  96   2.0000      -0.544731       -14.8229 
  97   2.0000      -0.542799       -14.7703 
  98   2.0000      -0.540597       -14.7104 
  99   2.0000      -0.538507       -14.6535 
 100   2.0000      -0.532568       -14.4919 
 101   2.0000      -0.530430       -14.4337 
 102   2.0000      -0.528678       -14.3861 
 103   2.0000      -0.522681       -14.2229 
 104   2.0000      -0.519546       -14.1376 
 105   2.0000      -0.507463       -13.8088 
 106   2.0000      -0.503481       -13.7004 
 107   2.0000      -0.499518       -13.5926 
 108   2.0000      -0.491559       -13.3760 
 109   2.0000      -0.481820       -13.1110 
 110   2.0000      -0.477877       -13.0037 
 111   2.0000      -0.473210       -12.8767 
 112   2.0000      -0.469531       -12.7766 
 113   2.0000      -0.456752       -12.4288 
 114   2.0000      -0.444976       -12.1084 
 115   2.0000      -0.437868       -11.9150 
 116   2.0000      -0.417828       -11.3697 
 117   2.0000      -0.407731       -11.0949 
 118   2.0000      -0.377445       -10.2708 
 119   2.0000      -0.363843        -9.9007 
 120   0.0000       0.082502         2.2450 
 121   0.0000       0.109940         2.9916 
 122   0.0000       0.131407         3.5758 
 123   0.0000       0.150632         4.0989 
 124   0.0000       0.161753         4.4015 
 125   0.0000       0.165022         4.4905 
 126   0.0000       0.177882         4.8404 
 127   0.0000       0.185691         5.0529 
 128   0.0000       0.187445         5.1006 
 129   0.0000       0.197064         5.3624 
 130   0.0000       0.202232         5.5030 
 131   0.0000       0.206629         5.6227 
 132   0.0000       0.217528         5.9192 
 133   0.0000       0.219746         5.9796 
 134   0.0000       0.222090         6.0434 
 135   0.0000       0.223313         6.0766 
 136   0.0000       0.237559         6.4643 
 137   0.0000       0.240747         6.5510 
 138   0.0000       0.244400         6.6505 
 139   0.0000       0.251726         6.8498 
 140   0.0000       0.253395         6.8952 
 141   0.0000       0.257764         7.0141 
 142   0.0000       0.263514         7.1706 
 143   0.0000       0.267006         7.2656 
 144   0.0000       0.274011         7.4562 
 145   0.0000       0.277034         7.5385 
 146   0.0000       0.278710         7.5841 
 147   0.0000       0.288298         7.8450 
 148   0.0000       0.291666         7.9366 
 149   0.0000       0.297307         8.0901 
 150   0.0000       0.299728         8.1560 
 151   0.0000       0.303517         8.2591 
 152   0.0000       0.309152         8.4124 
 153   0.0000       0.314574         8.5600 
 154   0.0000       0.323291         8.7972 
 155   0.0000       0.324895         8.8408 
 156   0.0000       0.330817         9.0020 
 157   0.0000       0.340752         9.2723 
 158   0.0000       0.342036         9.3073 
 159   0.0000       0.352523         9.5926 
 160   0.0000       0.357122         9.7178 
 161   0.0000       0.361405         9.8343 
 162   0.0000       0.370421        10.0797 
 163   0.0000       0.372990        10.1496 
 164   0.0000       0.374626        10.1941 
 165   0.0000       0.382079        10.3969 
 166   0.0000       0.394013        10.7216 
 167   0.0000       0.398244        10.8368 
 168   0.0000       0.399800        10.8791 
 169   0.0000       0.406478        11.0608 
 170   0.0000       0.411714        11.2033 
 171   0.0000       0.418507        11.3882 
 172   0.0000       0.425276        11.5724 
 173   0.0000       0.432045        11.7565 
 174   0.0000       0.438534        11.9331 
 175   0.0000       0.439736        11.9658 
 176   0.0000       0.456374        12.4186 
 177   0.0000       0.461770        12.5654 
 178   0.0000       0.473303        12.8792 
 179   0.0000       0.477488        12.9931 
 180   0.0000       0.490008        13.3338 
 181   0.0000       0.505425        13.7533 
 182   0.0000       0.517919        14.0933 
 183   0.0000       0.528126        14.3710 
 184   0.0000       0.535366        14.5680 
 185   0.0000       0.541391        14.7320 
 186   0.0000       0.550321        14.9750 
 187   0.0000       0.555474        15.1152 
 188   0.0000       0.567307        15.4372 
 189   0.0000       0.578652        15.7459 
 190   0.0000       0.584540        15.9061 
 191   0.0000       0.591637        16.0993 
 192   0.0000       0.614235        16.7142 
 193   0.0000       0.618165        16.8211 
 194   0.0000       0.619551        16.8588 
 195   0.0000       0.631554        17.1855 
 196   0.0000       0.637115        17.3368 
 197   0.0000       0.641340        17.4518 
 198   0.0000       0.647908        17.6305 
 199   0.0000       0.656493        17.8641 
 200   0.0000       0.672059        18.2876 
 201   0.0000       0.679284        18.4843 
 202   0.0000       0.685925        18.6650 
 203   0.0000       0.692874        18.8541 
 204   0.0000       0.699830        19.0433 
 205   0.0000       0.707751        19.2589 
 206   0.0000       0.718212        19.5435 
 207   0.0000       0.727634        19.7999 
 208   0.0000       0.734577        19.9889 
 209   0.0000       0.737724        20.0745 
 210   0.0000       0.745231        20.2788 
 211   0.0000       0.751728        20.4556 
 212   0.0000       0.765438        20.8286 
 213   0.0000       0.769194        20.9308 
 214   0.0000       0.772833        21.0299 
 215   0.0000       0.775246        21.0955 
 216   0.0000       0.781887        21.2762 
 217   0.0000       0.783885        21.3306 
 218   0.0000       0.796013        21.6606 
 219   0.0000       0.798318        21.7233 
 220   0.0000       0.798848        21.7378 
 221   0.0000       0.805449        21.9174 
 222   0.0000       0.807045        21.9608 
 223   0.0000       0.812394        22.1064 
 224   0.0000       0.815608        22.1938 
 225   0.0000       0.817253        22.2386 
 226   0.0000       0.829254        22.5651 
 227   0.0000       0.831774        22.6337 
 228   0.0000       0.835617        22.7383 
 229   0.0000       0.843007        22.9394 
 230   0.0000       0.844691        22.9852 
 231   0.0000       0.848736        23.0953 
 232   0.0000       0.850700        23.1487 
 233   0.0000       0.854847        23.2616 
 234   0.0000       0.857598        23.3364 
 235   0.0000       0.863501        23.4970 
 236   0.0000       0.863815        23.5056 
 237   0.0000       0.868174        23.6242 
 238   0.0000       0.872336        23.7375 
 239   0.0000       0.874486        23.7960 
 240   0.0000       0.878669        23.9098 
 241   0.0000       0.880338        23.9552 
 242   0.0000       0.883762        24.0484 
 243   0.0000       0.887925        24.1617 
 244   0.0000       0.888599        24.1800 
 245   0.0000       0.892050        24.2739 
 246   0.0000       0.896931        24.4067 
 247   0.0000       0.902012        24.5450 
 248   0.0000       0.906997        24.6807 
 249   0.0000       0.908647        24.7255 
 250   0.0000       0.909496        24.7486 
 251   0.0000       0.910515        24.7764 
 252   0.0000       0.912565        24.8321 
 253   0.0000       0.917173        24.9575 
 254   0.0000       0.918833        25.0027 
 255   0.0000       0.925715        25.1900 
 256   0.0000       0.927220        25.2309 
 257   0.0000       0.928750        25.2726 
 258   0.0000       0.932235        25.3674 
 259   0.0000       0.933013        25.3886 
 260   0.0000       0.939548        25.5664 
 261   0.0000       0.943727        25.6801 
 262   0.0000       0.947692        25.7880 
 263   0.0000       0.953530        25.9469 
 264   0.0000       0.954856        25.9829 
 265   0.0000       0.958742        26.0887 
 266   0.0000       0.963342        26.2139 
 267   0.0000       0.974095        26.5065 
 268   0.0000       0.975760        26.5518 
 269   0.0000       0.979338        26.6491 
 270   0.0000       0.984419        26.7874 
 271   0.0000       0.989965        26.9383 
 272   0.0000       0.993175        27.0257 
 273   0.0000       1.003269        27.3003 
 274   0.0000       1.010639        27.5009 
 275   0.0000       1.012895        27.5623 
 276   0.0000       1.017365        27.6839 
 277   0.0000       1.022607        27.8266 
 278   0.0000       1.034055        28.1381 
 279   0.0000       1.036616        28.2078 
 280   0.0000       1.038644        28.2629 
 281   0.0000       1.057796        28.7841 
 282   0.0000       1.075495        29.2657 
 283   0.0000       1.078861        29.3573 
 284   0.0000       1.083798        29.4916 
 285   0.0000       1.095342        29.8058 
 286   0.0000       1.104546        30.0562 
 287   0.0000       1.106662        30.1138 
 288   0.0000       1.127164        30.6717 
 289   0.0000       1.140807        31.0429 
 290   0.0000       1.145942        31.1827 
 291   0.0000       1.151056        31.3218 
 292   0.0000       1.163021        31.6474 
 293   0.0000       1.173156        31.9232 
 294   0.0000       1.189478        32.3674 
 295   0.0000       1.217361        33.1261 
 296   0.0000       1.224938        33.3323 
 297   0.0000       1.232609        33.5410 
 298   0.0000       1.238922        33.7128 
 299   0.0000       1.259507        34.2729 
 300   0.0000       1.268719        34.5236 
 301   0.0000       1.272268        34.6202 
 302   0.0000       1.281174        34.8625 
 303   0.0000       1.289730        35.0953 
 304   0.0000       1.296436        35.2778 
 305   0.0000       1.310685        35.6655 
 306   0.0000       1.321036        35.9472 
 307   0.0000       1.322966        35.9997 
 308   0.0000       1.332410        36.2567 
 309   0.0000       1.339042        36.4372 
 310   0.0000       1.347497        36.6673 
 311   0.0000       1.358563        36.9684 
 312   0.0000       1.371444        37.3189 
 313   0.0000       1.380111        37.5547 
 314   0.0000       1.393533        37.9200 
 315   0.0000       1.401346        38.1326 
 316   0.0000       1.409943        38.3665 
 317   0.0000       1.430857        38.9356 
 318   0.0000       1.432201        38.9722 
 319   0.0000       1.449471        39.4421 
 320   0.0000       1.452649        39.5286 
 321   0.0000       1.454707        39.5846 
 322   0.0000       1.467618        39.9359 
 323   0.0000       1.477400        40.2021 
 324   0.0000       1.491623        40.5891 
 325   0.0000       1.497160        40.7398 
 326   0.0000       1.514942        41.2237 
 327   0.0000       1.521538        41.4031 
 328   0.0000       1.527783        41.5731 
 329   0.0000       1.532237        41.6943 
 330   0.0000       1.547378        42.1063 
 331   0.0000       1.551735        42.2248 
 332   0.0000       1.566369        42.6231 
 333   0.0000       1.572604        42.7927 
 334   0.0000       1.583992        43.1026 
 335   0.0000       1.586147        43.1612 
 336   0.0000       1.595471        43.4150 
 337   0.0000       1.605944        43.7000 
 338   0.0000       1.611715        43.8570 
 339   0.0000       1.624063        44.1930 
 340   0.0000       1.631971        44.4082 
 341   0.0000       1.634849        44.4865 
 342   0.0000       1.647883        44.8412 
 343   0.0000       1.655972        45.0613 
 344   0.0000       1.659888        45.1678 
 345   0.0000       1.676263        45.6134 
 346   0.0000       1.696425        46.1621 
 347   0.0000       1.700899        46.2838 
 348   0.0000       1.707475        46.4628 
 349   0.0000       1.710653        46.5492 
 350   0.0000       1.723903        46.9098 
 351   0.0000       1.734659        47.2025 
 352   0.0000       1.741762        47.3958 
 353   0.0000       1.749050        47.5941 
 354   0.0000       1.757793        47.8320 
 355   0.0000       1.762563        47.9618 
 356   0.0000       1.767029        48.0833 
 357   0.0000       1.779505        48.4228 
 358   0.0000       1.789359        48.6909 
 359   0.0000       1.789601        48.6975 
 360   0.0000       1.796810        48.8937 
 361   0.0000       1.802476        49.0479 
 362   0.0000       1.803938        49.0876 
 363   0.0000       1.818226        49.4764 
 364   0.0000       1.822505        49.5929 
 365   0.0000       1.828035        49.7434 
 366   0.0000       1.841282        50.1038 
 367   0.0000       1.846403        50.2432 
 368   0.0000       1.858498        50.5723 
 369   0.0000       1.882960        51.2379 
 370   0.0000       1.895354        51.5752 
 371   0.0000       1.903194        51.7885 
 372   0.0000       1.904689        51.8292 
 373   0.0000       1.909381        51.9569 
 374   0.0000       1.920092        52.2484 
 375   0.0000       1.923449        52.3397 
 376   0.0000       1.934516        52.6409 
 377   0.0000       1.948316        53.0164 
 378   0.0000       1.959089        53.3095 
 379   0.0000       1.966359        53.5073 
 380   0.0000       1.968540        53.5667 
 381   0.0000       1.977180        53.8018 
 382   0.0000       1.982578        53.9487 
 383   0.0000       1.990515        54.1647 
 384   0.0000       1.992052        54.2065 
 385   0.0000       1.998548        54.3833 
 386   0.0000       2.005753        54.5793 
 387   0.0000       2.010634        54.7121 
 388   0.0000       2.018100        54.9153 
 389   0.0000       2.024529        55.0902 
 390   0.0000       2.032787        55.3149 
 391   0.0000       2.040688        55.5299 
 392   0.0000       2.047034        55.7026 
 393   0.0000       2.049554        55.7712 
 394   0.0000       2.053081        55.8672 
 395   0.0000       2.059982        56.0550 
 396   0.0000       2.060264        56.0626 
 397   0.0000       2.068338        56.2823 
 398   0.0000       2.071330        56.3638 
 399   0.0000       2.074083        56.4387 
 400   0.0000       2.086020        56.7635 
 401   0.0000       2.087277        56.7977 
 402   0.0000       2.090444        56.8839 
 403   0.0000       2.094481        56.9937 
 404   0.0000       2.099648        57.1343 
 405   0.0000       2.103966        57.2518 
 406   0.0000       2.110493        57.4294 
 407   0.0000       2.111282        57.4509 
 408   0.0000       2.118518        57.6478 
 409   0.0000       2.123229        57.7760 
 410   0.0000       2.127212        57.8844 
 411   0.0000       2.129586        57.9490 
 412   0.0000       2.134430        58.0808 
 413   0.0000       2.140200        58.2378 
 414   0.0000       2.143818        58.3363 
 415   0.0000       2.147548        58.4378 
 416   0.0000       2.158182        58.7271 
 417   0.0000       2.158430        58.7339 
 418   0.0000       2.170945        59.0744 
 419   0.0000       2.176826        59.2344 
 420   0.0000       2.178121        59.2697 
 421   0.0000       2.182659        59.3932 
 422   0.0000       2.185807        59.4788 
 423   0.0000       2.199586        59.8538 
 424   0.0000       2.200641        59.8825 
 425   0.0000       2.204446        59.9860 
 426   0.0000       2.207806        60.0775 
 427   0.0000       2.218314        60.3634 
 428   0.0000       2.222570        60.4792 
 429   0.0000       2.226861        60.5960 
 430   0.0000       2.233094        60.7656 
 431   0.0000       2.242804        61.0298 
 432   0.0000       2.244812        61.0844 
 433   0.0000       2.248654        61.1890 
 434   0.0000       2.256684        61.4075 
 435   0.0000       2.264134        61.6102 
 436   0.0000       2.270898        61.7943 
 437   0.0000       2.278498        62.0011 
 438   0.0000       2.282208        62.1020 
 439   0.0000       2.287677        62.2509 
 440   0.0000       2.294941        62.4485 
 441   0.0000       2.304789        62.7165 
 442   0.0000       2.308996        62.8310 
 443   0.0000       2.318729        63.0958 
 444   0.0000       2.327789        63.3424 
 445   0.0000       2.332577        63.4727 
 446   0.0000       2.336613        63.5825 
 447   0.0000       2.351033        63.9749 
 448   0.0000       2.355477        64.0958 
 449   0.0000       2.361650        64.2638 
 450   0.0000       2.373138        64.5764 
 451   0.0000       2.381395        64.8011 
 452   0.0000       2.386877        64.9502 
 453   0.0000       2.390719        65.0548 
 454   0.0000       2.403217        65.3949 
 455   0.0000       2.413784        65.6824 
 456   0.0000       2.420270        65.8589 
 457   0.0000       2.428959        66.0953 
 458   0.0000       2.432954        66.2041 
 459   0.0000       2.451041        66.6962 
 460   0.0000       2.453454        66.7619 
 461   0.0000       2.460636        66.9573 
 462   0.0000       2.466412        67.1145 
 463   0.0000       2.472920        67.2916 
 464   0.0000       2.489669        67.7473 
 465   0.0000       2.498301        67.9822 
 466   0.0000       2.509927        68.2986 
 467   0.0000       2.511362        68.3376 
 468   0.0000       2.520909        68.5974 
 469   0.0000       2.524587        68.6975 
 470   0.0000       2.528508        68.8042 
 471   0.0000       2.545670        69.2712 
 472   0.0000       2.554992        69.5249 
 473   0.0000       2.559652        69.6517 
 474   0.0000       2.571702        69.9796 
 475   0.0000       2.579047        70.1794 
 476   0.0000       2.580359        70.2151 
 477   0.0000       2.587288        70.4037 
 478   0.0000       2.600185        70.7546 
 479   0.0000       2.602578        70.8198 
 480   0.0000       2.614667        71.1487 
 481   0.0000       2.629548        71.5536 
 482   0.0000       2.636297        71.7373 
 483   0.0000       2.644216        71.9528 
 484   0.0000       2.660027        72.3830 
 485   0.0000       2.673720        72.7556 
 486   0.0000       2.681702        72.9728 
 487   0.0000       2.696792        73.3834 
 488   0.0000       2.701250        73.5048 
 489   0.0000       2.706453        73.6463 
 490   0.0000       2.719281        73.9954 
 491   0.0000       2.723113        74.0997 
 492   0.0000       2.737716        74.4970 
 493   0.0000       2.744830        74.6906 
 494   0.0000       2.758687        75.0677 
 495   0.0000       2.766581        75.2825 
 496   0.0000       2.771276        75.4103 
 497   0.0000       2.777531        75.5804 
 498   0.0000       2.794698        76.0476 
 499   0.0000       2.805809        76.3500 
 500   0.0000       2.813316        76.5542 
 501   0.0000       2.819702        76.7280 
 502   0.0000       2.827785        76.9479 
 503   0.0000       2.846424        77.4551 
 504   0.0000       2.850523        77.5667 
 505   0.0000       2.853301        77.6423 
 506   0.0000       2.862758        77.8996 
 507   0.0000       2.865786        77.9820 
 508   0.0000       2.875542        78.2475 
 509   0.0000       2.882777        78.4444 
 510   0.0000       2.886602        78.5484 
 511   0.0000       2.903666        79.0128 
 512   0.0000       2.917020        79.3762 
 513   0.0000       2.920668        79.4754 
 514   0.0000       2.941333        80.0377 
 515   0.0000       2.946465        80.1774 
 516   0.0000       2.951982        80.3275 
 517   0.0000       2.967906        80.7608 
 518   0.0000       2.974341        80.9359 
 519   0.0000       2.985020        81.2265 
 520   0.0000       3.009144        81.8830 
 521   0.0000       3.021264        82.2128 
 522   0.0000       3.031141        82.4815 
 523   0.0000       3.061852        83.3172 
 524   0.0000       3.076791        83.7237 
 525   0.0000       3.085514        83.9611 
 526   0.0000       3.089693        84.0748 
 527   0.0000       3.107351        84.5553 
 528   0.0000       3.112456        84.6942 
 529   0.0000       3.123140        84.9850 
 530   0.0000       3.127499        85.1036 
 531   0.0000       3.133299        85.2614 
 532   0.0000       3.141351        85.4805 
 533   0.0000       3.161660        86.0331 
 534   0.0000       3.171374        86.2975 
 535   0.0000       3.173172        86.3464 
 536   0.0000       3.188877        86.7738 
 537   0.0000       3.195514        86.9544 
 538   0.0000       3.208328        87.3030 
 539   0.0000       3.220120        87.6239 
 540   0.0000       3.231884        87.9440 
 541   0.0000       3.237621        88.1001 
 542   0.0000       3.248096        88.3852 
 543   0.0000       3.253153        88.5228 
 544   0.0000       3.260828        88.7317 
 545   0.0000       3.268654        88.9446 
 546   0.0000       3.274347        89.0995 
 547   0.0000       3.280601        89.2697 
 548   0.0000       3.285705        89.4086 
 549   0.0000       3.299389        89.7809 
 550   0.0000       3.306980        89.9875 
 551   0.0000       3.324393        90.4613 
 552   0.0000       3.332568        90.6838 
 553   0.0000       3.336309        90.7856 
 554   0.0000       3.342485        90.9536 
 555   0.0000       3.350285        91.1659 
 556   0.0000       3.357507        91.3624 
 557   0.0000       3.364456        91.5515 
 558   0.0000       3.370422        91.7138 
 559   0.0000       3.379894        91.9716 
 560   0.0000       3.385561        92.1258 
 561   0.0000       3.393142        92.3321 
 562   0.0000       3.407901        92.7337 
 563   0.0000       3.423197        93.1499 
 564   0.0000       3.428076        93.2827 
 565   0.0000       3.440596        93.6234 
 566   0.0000       3.452831        93.9563 
 567   0.0000       3.475903        94.5841 
 568   0.0000       3.482983        94.7768 
 569   0.0000       3.497432        95.1700 
 570   0.0000       3.506887        95.4273 
 571   0.0000       3.515069        95.6499 
 572   0.0000       3.525473        95.9330 
 573   0.0000       3.530023        96.0568 
 574   0.0000       3.539615        96.3178 
 575   0.0000       3.543302        96.4182 
 576   0.0000       3.547733        96.5387 
 577   0.0000       3.550525        96.6147 
 578   0.0000       3.554315        96.7178 
 579   0.0000       3.651282        99.3564 
 580   0.0000       3.683062       100.2212 
 581   0.0000       3.700643       100.6996 
 582   0.0000       3.730276       101.5060 
 583   0.0000       3.758822       102.2827 
 584   0.0000       3.765504       102.4646 
 585   0.0000       3.778013       102.8050 
 586   0.0000       3.803357       103.4946 
 587   0.0000       3.822816       104.0241 
 588   0.0000       3.858781       105.0028 
 589   0.0000       3.863760       105.1383 
 590   0.0000       3.930908       106.9654 
 591   0.0000       4.015299       109.2618 
 592   0.0000       4.040124       109.9374 
 593   0.0000       4.078004       110.9681 
 594   0.0000       4.159871       113.1959 
 595   0.0000       4.186018       113.9073 
 596   0.0000       4.252397       115.7136 
 597   0.0000       4.296978       116.9267 

                    ********************************
                    * MULLIKEN POPULATION ANALYSIS *
                    ********************************

-----------------------
MULLIKEN ATOMIC CHARGES
-----------------------
   0 C :    0.054895
   1 C :    0.278001
   2 C :    0.055978
   3 O :   -0.582652
   4 C :    0.261717
   5 C :    0.118062
   6 C :   -0.025227
   7 C :   -0.139464
   8 C :   -0.040701
   9 C :    0.549498
  10 F :   -0.371419
  11 C :   -0.134948
  12 C :   -0.071229
  13 C :    0.315032
  14 O :   -0.392030
  15 C :   -0.073498
  16 C :    0.072605
  17 C :   -0.364063
  18 C :    0.090953
  19 C :    0.264487
  20 F :   -0.393344
  21 C :    0.340440
  22 O :   -0.445880
  23 C :    0.109835
  24 C :   -0.613832
  25 C :    0.157179
  26 C :    0.180204
  27 C :    0.172938
  28 O :   -0.405064
  29 C :    0.369537
  30 O :   -0.466910
  31 O :   -0.614976
  32 H :    0.041813
  33 H :    0.034489
  34 H :    0.041687
  35 H :    0.046325
  36 H :    0.021610
  37 H :    0.040640
  38 H :    0.054137
  39 H :    0.054200
  40 H :    0.057420
  41 H :    0.054583
  42 H :    0.048335
  43 H :    0.041016
  44 H :    0.063566
  45 H :    0.039137
  46 H :    0.059319
  47 H :    0.051823
  48 H :    0.061002
  49 H :    0.060632
  50 H :    0.034620
  51 H :    0.056122
  52 H :    0.047576
  53 H :    0.209208
  54 H :    0.057036
  55 H :    0.033690
  56 H :    0.025816
  57 H :    0.024788
  58 H :    0.058876
  59 H :    0.052488
  60 H :    0.057923
  61 H :    0.213999
Sum of atomic charges:   -0.0000000

--------------------------------
MULLIKEN REDUCED ORBITAL CHARGES
--------------------------------
  0 C s       :     3.012128  s :     3.012128
      pz      :     0.898290  p :     2.897617
      px      :     1.016679
      py      :     0.982648
      dz2     :     0.009441  d :     0.035359
      dxz     :     0.005754
      dyz     :     0.006981
      dx2y2   :     0.006453
      dxy     :     0.006729
  1 C s       :     3.067974  s :     3.067974
      pz      :     0.998823  p :     2.535529
      px      :     0.863745
      py      :     0.672961
      dz2     :     0.024340  d :     0.118496
      dxz     :     0.017101
      dyz     :     0.023779
      dx2y2   :     0.024011
      dxy     :     0.029265
  2 C s       :     3.016271  s :     3.016271
      pz      :     0.995753  p :     2.892497
      px      :     0.897574
      py      :     0.999170
      dz2     :     0.009158  d :     0.035255
      dxz     :     0.004863
      dyz     :     0.006042
      dx2y2   :     0.006845
      dxy     :     0.008346
  3 O s       :     3.840429  s :     3.840429
      pz      :     1.511004  p :     4.724195
      px      :     1.662670
      py      :     1.550521
      dz2     :     0.006379  d :     0.018027
      dxz     :     0.002771
      dyz     :     0.002370
      dx2y2   :     0.002608
      dxy     :     0.003900
  4 C s       :     3.064148  s :     3.064148
      pz      :     0.716598  p :     2.593999
      px      :     0.984236
      py      :     0.893164
      dz2     :     0.021125  d :     0.080137
      dxz     :     0.021065
      dyz     :     0.012263
      dx2y2   :     0.014317
      dxy     :     0.011368
  5 C s       :     2.978325  s :     2.978325
      pz      :     0.998071  p :     2.858828
      px      :     0.899304
      py      :     0.961452
      dz2     :     0.010546  d :     0.044785
      dxz     :     0.004539
      dyz     :     0.009159
      dx2y2   :     0.009386
      dxy     :     0.011155
  6 C s       :     3.122860  s :     3.122860
      pz      :     1.037598  p :     2.851810
      px      :     0.912781
      py      :     0.901430
      dz2     :     0.013340  d :     0.050557
      dxz     :     0.006194
      dyz     :     0.007620
      dx2y2   :     0.011800
      dxy     :     0.011604
  7 C s       :     3.134054  s :     3.134054
      pz      :     1.036111  p :     2.955218
      px      :     0.971888
      py      :     0.947218
      dz2     :     0.011022  d :     0.050193
      dxz     :     0.006080
      dyz     :     0.011513
      dx2y2   :     0.010019
      dxy     :     0.011560
  8 C s       :     3.082516  s :     3.082516
      pz      :     0.987233  p :     2.913906
      px      :     0.953460
      py      :     0.973213
      dz2     :     0.011688  d :     0.044279
      dxz     :     0.004621
      dyz     :     0.008920
      dx2y2   :     0.010474
      dxy     :     0.008576
  9 C s       :     2.921499  s :     2.921499
      pz      :     0.718613  p :     2.437477
      px      :     0.911203
      py      :     0.807660
      dz2     :     0.021107  d :     0.091527
      dxz     :     0.011476
      dyz     :     0.026709
      dx2y2   :     0.015509
      dxy     :     0.016726
 10 F s       :     3.935101  s :     3.935101
      pz      :     1.685840  p :     5.428191
      px      :     1.938063
      py      :     1.804288
      dz2     :     0.002041  d :     0.008127
      dxz     :     0.001042
      dyz     :     0.003531
      dx2y2   :     0.000859
      dxy     :     0.000653
 11 C s       :     3.072078  s :     3.072078
      pz      :     0.988773  p :     3.012420
      px      :     0.985394
      py      :     1.038253
      dz2     :     0.012396  d :     0.050450
      dxz     :     0.006760
      dyz     :     0.010830
      dx2y2   :     0.009667
      dxy     :     0.010797
 12 C s       :     3.265500  s :     3.265500
      pz      :     0.947234  p :     2.765852
      px      :     0.922858
      py      :     0.895760
      dz2     :     0.009548  d :     0.039877
      dxz     :     0.006639
      dyz     :     0.007732
      dx2y2   :     0.007164
      dxy     :     0.008794
 13 C s       :     3.015231  s :     3.015231
      pz      :     0.813081  p :     2.556071
      px      :     0.803635
      py      :     0.939355
      dz2     :     0.025600  d :     0.113667
      dxz     :     0.017455
      dyz     :     0.026090
      dx2y2   :     0.018058
      dxy     :     0.026464
 14 O s       :     3.779120  s :     3.779120
      pz      :     1.410461  p :     4.592983
      px      :     1.380993
      py      :     1.801530
      dz2     :     0.005171  d :     0.019926
      dxz     :     0.006940
      dyz     :     0.002171
      dx2y2   :     0.003667
      dxy     :     0.001977
 15 C s       :     3.209847  s :     3.209847
      pz      :     0.938530  p :     2.822737
      px      :     0.947628
      py      :     0.936579
      dz2     :     0.008214  d :     0.040913
      dxz     :     0.006464
      dyz     :     0.010956
      dx2y2   :     0.008072
      dxy     :     0.007207
 16 C s       :     3.124373  s :     3.124373
      pz      :     0.935796  p :     2.759559
      px      :     0.917318
      py      :     0.906445
      dz2     :     0.009581  d :     0.043463
      dxz     :     0.006294
      dyz     :     0.010418
      dx2y2   :     0.008792
      dxy     :     0.008378
 17 C s       :     3.276921  s :     3.276921
      pz      :     1.052536  p :     3.029018
      px      :     0.973186
      py      :     1.003296
      dz2     :     0.012920  d :     0.058124
      dxz     :     0.006544
      dyz     :     0.014061
      dx2y2   :     0.012995
      dxy     :     0.011604
 18 C s       :     3.005526  s :     3.005526
      pz      :     0.883754  p :     2.866790
      px      :     0.988687
      py      :     0.994349
      dz2     :     0.008648  d :     0.036732
      dxz     :     0.004015
      dyz     :     0.010399
      dx2y2   :     0.008286
      dxy     :     0.005384
 19 C s       :     3.098521  s :     3.098521
      pz      :     0.696256  p :     2.545204
      px      :     0.956442
      py      :     0.892506
      dz2     :     0.022720  d :     0.091789
      dxz     :     0.012822
      dyz     :     0.026890
      dx2y2   :     0.014874
      dxy     :     0.014483
 20 F s       :     3.948201  s :     3.948201
      pz      :     1.664690  p :     5.437425
      px      :     1.935612
      py      :     1.837124
[...]
      pz      :     1.025093  p :     3.087233
      px      :     1.030573
      py      :     1.031567
      dz2     :     0.017542  d :     0.093998
      dxz     :     0.016316
      dyz     :     0.024878
      dx2y2   :     0.016854
      dxy     :     0.018408
 16 C s       :     2.869463  s :     2.869463
      pz      :     1.008125  p :     2.999495
      px      :     0.988261
      py      :     1.003110
      dz2     :     0.018591  d :     0.095502
      dxz     :     0.014371
      dyz     :     0.024322
      dx2y2   :     0.018459
      dxy     :     0.019760
 17 C s       :     2.845637  s :     2.845637
      pz      :     1.036715  p :     3.077668
      px      :     1.010545
      py      :     1.030408
      dz2     :     0.027229  d :     0.122530
      dxz     :     0.013201
      dyz     :     0.029050
      dx2y2   :     0.028566
      dxy     :     0.024484
 18 C s       :     2.834671  s :     2.834671
      pz      :     0.990602  p :     3.090322
      px      :     1.051324
      py      :     1.048395
      dz2     :     0.019738  d :     0.082740
      dxz     :     0.009486
      dyz     :     0.023410
      dx2y2   :     0.018270
      dxy     :     0.011835
 19 C s       :     2.871640  s :     2.871640
      pz      :     0.820690  p :     2.811158
      px      :     1.030063
      py      :     0.960405
      dz2     :     0.048045  d :     0.191285
      dxz     :     0.025823
      dyz     :     0.055444
      dx2y2   :     0.031144
      dxy     :     0.030829
 20 F s       :     3.734693  s :     3.734693
      pz      :     1.670931  p :     5.420901
      px      :     1.917931
      py      :     1.832039
      dz2     :     0.003530  d :     0.011418
      dxz     :     0.001821
      dyz     :     0.004315
      dx2y2   :     0.000935
      dxy     :     0.000817
 21 C s       :     2.841798  s :     2.841798
      pz      :     0.869024  p :     2.883657
      px      :     0.968687
      py      :     1.045947
      dz2     :     0.037633  d :     0.161603
      dxz     :     0.040354
      dyz     :     0.037000
      dx2y2   :     0.033056
      dxy     :     0.013560
 22 O s       :     3.443837  s :     3.443837
      pz      :     1.303685  p :     4.707950
      px      :     1.646222
      py      :     1.758044
      dz2     :     0.003134  d :     0.023778
      dxz     :     0.011321
      dyz     :     0.004301
      dx2y2   :     0.001591
      dxy     :     0.003431
 23 C s       :     2.836578  s :     2.836578
      pz      :     1.026633  p :     3.087676
      px      :     1.009639
      py      :     1.051405
      dz2     :     0.012941  d :     0.098375
      dxz     :     0.019957
      dyz     :     0.028574
      dx2y2   :     0.025852
      dxy     :     0.011050
 24 C s       :     2.858029  s :     2.858029
      pz      :     1.041205  p :     3.065510
      px      :     0.983906
      py      :     1.040400
      dz2     :     0.018918  d :     0.118546
      dxz     :     0.022856
      dyz     :     0.027883
      dx2y2   :     0.031078
      dxy     :     0.017811
 25 C s       :     2.828324  s :     2.828324
      pz      :     1.024578  p :     3.105758
      px      :     1.070638
      py      :     1.010543
      dz2     :     0.017873  d :     0.083640
      dxz     :     0.010867
      dyz     :     0.022249
      dx2y2   :     0.015124
      dxy     :     0.017526
 26 C s       :     2.862898  s :     2.862898
      pz      :     0.955582  p :     2.908616
      px      :     0.967461
      py      :     0.985573
      dz2     :     0.044189  d :     0.168622
      dxz     :     0.031033
      dyz     :     0.024143
      dx2y2   :     0.040797
      dxy     :     0.028460
 27 C s       :     2.901309  s :     2.901309
      pz      :     1.019006  p :     2.721693
      px      :     0.690584
      py      :     1.012103
      dz2     :     0.076190  d :     0.213750
      dxz     :     0.026332
      dyz     :     0.052465
      dx2y2   :     0.031260
      dxy     :     0.027503
 28 O s       :     3.559995  s :     3.559995
      pz      :     1.626181  p :     4.659291
      px      :     1.422630
      py      :     1.610480
      dz2     :     0.005775  d :     0.030397
      dxz     :     0.003787
      dyz     :     0.012943
      dx2y2   :     0.004462
      dxy     :     0.003430
 29 C s       :     2.833874  s :     2.833874
      pz      :     0.823317  p :     2.908478
      px      :     1.064875
      py      :     1.020286
      dz2     :     0.046874  d :     0.150542
      dxz     :     0.033355
      dyz     :     0.031269
      dx2y2   :     0.023523
      dxy     :     0.015521
 30 O s       :     3.454236  s :     3.454236
      pz      :     1.300734  p :     4.715716
      px      :     1.855530
      py      :     1.559452
      dz2     :     0.008558  d :     0.024207
      dxz     :     0.002824
      dyz     :     0.007375
      dx2y2   :     0.003554
      dxy     :     0.001896
 31 O s       :     3.483325  s :     3.483325
      pz      :     1.538321  p :     4.720816
      px      :     1.567554
      py      :     1.614941
      dz2     :     0.003477  d :     0.027611
      dxz     :     0.004080
      dyz     :     0.008777
      dx2y2   :     0.003578
      dxy     :     0.007699
 32 H s       :     0.906404  s :     0.906404
      pz      :     0.023850  p :     0.066218
      px      :     0.018584
      py      :     0.023784
 33 H s       :     0.912809  s :     0.912809
      pz      :     0.016105  p :     0.066139
      px      :     0.037691
      py      :     0.012343
 34 H s       :     0.906785  s :     0.906785
      pz      :     0.011730  p :     0.066134
      px      :     0.018188
      py      :     0.036216
 35 H s       :     0.906565  s :     0.906565
      pz      :     0.020381  p :     0.066099
      px      :     0.018748
      py      :     0.026970
 36 H s       :     0.917843  s :     0.917843
      pz      :     0.038250  p :     0.066025
      px      :     0.012527
      py      :     0.015248
 37 H s       :     0.909467  s :     0.909467
      pz      :     0.012128  p :     0.066119
      px      :     0.021310
      py      :     0.032681
 38 H s       :     0.917720  s :     0.917720
      pz      :     0.023256  p :     0.068128
      px      :     0.023772
      py      :     0.021100
 39 H s       :     0.904851  s :     0.904851
      pz      :     0.022500  p :     0.067540
      px      :     0.012490
      py      :     0.032549
 40 H s       :     0.906613  s :     0.906613
      pz      :     0.039207  p :     0.068864
      px      :     0.014484
      py      :     0.015173
 41 H s       :     0.907409  s :     0.907409
      pz      :     0.042831  p :     0.069383
      px      :     0.013825
      py      :     0.012727
 42 H s       :     0.906078  s :     0.906078
      pz      :     0.035985  p :     0.069893
      px      :     0.015512
      py      :     0.018396
 43 H s       :     0.915184  s :     0.915184
      pz      :     0.037421  p :     0.068215
      px      :     0.015396
      py      :     0.015397
 44 H s       :     0.903860  s :     0.903860
      pz      :     0.012923  p :     0.067827
      px      :     0.019789
      py      :     0.035115
 45 H s       :     0.916879  s :     0.916879
      pz      :     0.031427  p :     0.066280
      px      :     0.015411
      py      :     0.019442
 46 H s       :     0.887485  s :     0.887485
      pz      :     0.028567  p :     0.072354
      px      :     0.012855
      py      :     0.030932
 47 H s       :     0.892642  s :     0.892642
      pz      :     0.011758  p :     0.070431
      px      :     0.021753
      py      :     0.036921
 48 H s       :     0.897709  s :     0.897709
      pz      :     0.024234  p :     0.070370
      px      :     0.012818
      py      :     0.033317
 49 H s       :     0.905828  s :     0.905828
      pz      :     0.028422  p :     0.067260
      px      :     0.013172
      py      :     0.025666
 50 H s       :     0.921416  s :     0.921416
      pz      :     0.015337  p :     0.067254
      px      :     0.018383
      py      :     0.033533
 51 H s       :     0.904514  s :     0.904514
      pz      :     0.010993  p :     0.066191
      px      :     0.042079
      py      :     0.013119
 52 H s       :     0.912946  s :     0.912946
      pz      :     0.010428  p :     0.066569
      px      :     0.012227
      py      :     0.043914
 53 H s       :     0.731000  s :     0.731000
      pz      :     0.061987  p :     0.182987
      px      :     0.057131
      py      :     0.063869
 54 H s       :     0.905140  s :     0.905140
      pz      :     0.019346  p :     0.067954
      px      :     0.015154
      py      :     0.033455
 55 H s       :     0.918264  s :     0.918264
      pz      :     0.028061  p :     0.069418
      px      :     0.013137
      py      :     0.028219
 56 H s       :     0.919139  s :     0.919139
      pz      :     0.014873  p :     0.065798
      px      :     0.021460
      py      :     0.029466
 57 H s       :     0.916415  s :     0.916415
      pz      :     0.036283  p :     0.066352
      px      :     0.017228
      py      :     0.012840
 58 H s       :     0.910783  s :     0.910783
      pz      :     0.013768  p :     0.072098
      px      :     0.041475
      py      :     0.016855
 59 H s       :     0.907533  s :     0.907533
      pz      :     0.015174  p :     0.065309
      px      :     0.021414
      py      :     0.028721
 60 H s       :     0.905728  s :     0.905728
      pz      :     0.011436  p :     0.067350
      px      :     0.043167
      py      :     0.012748
 61 H s       :     0.728483  s :     0.728483
      pz      :     0.043076  p :     0.182019
      px      :     0.053186
      py      :     0.085757


                      *****************************
                      * MAYER POPULATION ANALYSIS *
                      *****************************

  NA   - Mulliken gross atomic population
  ZA   - Total nuclear charge
  QA   - Mulliken gross atomic charge
  VA   - Mayer's total valence
  BVA  - Mayer's bonded valence
  FA   - Mayer's free valence

  ATOM       NA         ZA         QA         VA         BVA        FA
  0 C      5.9451     6.0000     0.0549     3.9107     3.9107    -0.0000
  1 C      5.7220     6.0000     0.2780     3.8616     3.8616    -0.0000
  2 C      5.9440     6.0000     0.0560     3.9084     3.9084    -0.0000
  3 O      8.5827     8.0000    -0.5827     1.7626     1.7626     0.0000
  4 C      5.7383     6.0000     0.2617     3.8969     3.8969     0.0000
  5 C      5.8819     6.0000     0.1181     3.8452     3.8452     0.0000
  6 C      6.0252     6.0000    -0.0252     3.7237     3.7237     0.0000
  7 C      6.1395     6.0000    -0.1395     3.8241     3.8241    -0.0000
  8 C      6.0407     6.0000    -0.0407     3.8490     3.8490    -0.0000
  9 C      5.4505     6.0000     0.5495     3.7671     3.7671    -0.0000
 10 F      9.3714     9.0000    -0.3714     0.9116     0.9116     0.0000
 11 C      6.1349     6.0000    -0.1349     3.6848     3.6848    -0.0000
 12 C      6.0712     6.0000    -0.0712     3.9072     3.9072    -0.0000
 13 C      5.6850     6.0000     0.3150     3.9350     3.9350     0.0000
 14 O      8.3920     8.0000    -0.3920     2.0552     2.0552     0.0000
 15 C      6.0735     6.0000    -0.0735     3.8590     3.8590     0.0000
 16 C      5.9274     6.0000     0.0726     3.7553     3.7553     0.0000
 17 C      6.3641     6.0000    -0.3641     3.7626     3.7626    -0.0000
 18 C      5.9090     6.0000     0.0910     3.8119     3.8119     0.0000
 19 C      5.7355     6.0000     0.2645     3.4423     3.4423    -0.0000
 20 F      9.3933     9.0000    -0.3933     0.8534     0.8534     0.0000
 21 C      5.6596     6.0000     0.3404     3.8491     3.8491    -0.0000
 22 O      8.4459     8.0000    -0.4459     1.9423     1.9423    -0.0000
 23 C      5.8902     6.0000     0.1098     3.7874     3.7874    -0.0000
 24 C      6.6138     6.0000    -0.6138     3.7951     3.7951    -0.0000
 25 C      5.8428     6.0000     0.1572     3.8168     3.8168    -0.0000
 26 C      5.8198     6.0000     0.1802     3.4144     3.4144    -0.0000
 27 C      5.8271     6.0000     0.1729     3.9025     3.9025    -0.0000
 28 O      8.4051     8.0000    -0.4051     2.0515     2.0515    -0.0000
 29 C      5.6305     6.0000     0.3695     3.7846     3.7846     0.0000
 30 O      8.4669     8.0000    -0.4669     1.9348     1.9348    -0.0000
 31 O      8.6150     8.0000    -0.6150     1.7454     1.7454    -0.0000
 32 H      0.9582     1.0000     0.0418     0.9878     0.9878     0.0000
 33 H      0.9655     1.0000     0.0345     1.0014     1.0014     0.0000
 34 H      0.9583     1.0000     0.0417     0.9875     0.9875    -0.0000
 35 H      0.9537     1.0000     0.0463     0.9883     0.9883     0.0000
 36 H      0.9784     1.0000     0.0216     0.9951     0.9951    -0.0000
 37 H      0.9594     1.0000     0.0406     0.9865     0.9865    -0.0000
 38 H      0.9459     1.0000     0.0541     0.9990     0.9990     0.0000
 39 H      0.9458     1.0000     0.0542     0.9840     0.9840     0.0000
 40 H      0.9426     1.0000     0.0574     0.9856     0.9856     0.0000
 41 H      0.9454     1.0000     0.0546     0.9828     0.9828    -0.0000
 42 H      0.9517     1.0000     0.0483     0.9746     0.9746    -0.0000
 43 H      0.9590     1.0000     0.0410     1.0001     1.0001     0.0000
 44 H      0.9364     1.0000     0.0636     0.9764     0.9764    -0.0000
 45 H      0.9609     1.0000     0.0391     0.9877     0.9877    -0.0000
 46 H      0.9407     1.0000     0.0593     1.0162     1.0162    -0.0000
 47 H      0.9482     1.0000     0.0518     1.0006     1.0006     0.0000
 48 H      0.9390     1.0000     0.0610     0.9935     0.9935     0.0000
 49 H      0.9394     1.0000     0.0606     0.9953     0.9953    -0.0000
 50 H      0.9654     1.0000     0.0346     0.9916     0.9916     0.0000
 51 H      0.9439     1.0000     0.0561     0.9931     0.9931    -0.0000
 52 H      0.9524     1.0000     0.0476     0.9889     0.9889    -0.0000
 53 H      0.7908     1.0000     0.2092     0.9930     0.9930    -0.0000
 54 H      0.9430     1.0000     0.0570     0.9821     0.9821    -0.0000
 55 H      0.9663     1.0000     0.0337     1.0134     1.0134     0.0000
 56 H      0.9742     1.0000     0.0258     0.9947     0.9947    -0.0000
 57 H      0.9752     1.0000     0.0248     1.0034     1.0034    -0.0000
 58 H      0.9411     1.0000     0.0589     1.0066     1.0066    -0.0000
 59 H      0.9475     1.0000     0.0525     0.9978     0.9978     0.0000
 60 H      0.9421     1.0000     0.0579     0.9942     0.9942    -0.0000
 61 H      0.7860     1.0000     0.2140     1.0008     1.0008    -0.0000

  Mayer bond orders larger than 0.100000
B(  0-C ,  1-C ) :   1.0375 B(  0-C , 32-H ) :   0.9770 B(  0-C , 33-H ) :   0.9751 
B(  0-C , 34-H ) :   0.9746 B(  1-C ,  2-C ) :   1.0450 B(  1-C ,  3-O ) :   0.8903 
B(  1-C , 31-O ) :   0.8317 B(  2-C , 35-H ) :   0.9758 B(  2-C , 36-H ) :   0.9711 
B(  2-C , 37-H ) :   0.9774 B(  3-O ,  4-C ) :   0.8542 B(  4-C ,  5-C ) :   1.0501 
B(  4-C , 26-C ) :   1.0463 B(  4-C , 38-H ) :   0.9776 B(  5-C ,  6-C ) :   1.0032 
B(  5-C , 39-H ) :   0.9551 B(  5-C , 40-H ) :   0.9552 B(  6-C ,  7-C ) :   0.9839 
B(  6-C , 24-C ) :   0.9526 B(  6-C , 41-H ) :   0.9550 B(  7-C ,  8-C ) :   0.9887 
B(  7-C , 19-C ) :   1.0003 B(  7-C , 42-H ) :   0.9451 B(  8-C ,  9-C ) :   1.0346 
B(  8-C , 43-H ) :   0.9569 B(  8-C , 44-H ) :   0.9564 B(  9-C , 10-F ) :   0.8597 
B(  9-C , 11-C ) :   0.9694 B(  9-C , 45-H ) :   0.9785 B( 11-C , 12-C ) :   1.8780 
B( 11-C , 17-C ) :   0.9148 B( 12-C , 13-C ) :   1.0042 B( 12-C , 46-H ) :   1.0069 
B( 13-C , 14-O ) :   1.9460 B( 13-C , 15-C ) :   1.0055 B( 15-C , 16-C ) :   1.8607 
B( 15-C , 47-H ) :   1.0036 B( 16-C , 17-C ) :   0.9733 B( 16-C , 48-H ) :   0.9897 
B( 17-C , 18-C ) :   0.9990 B( 17-C , 19-C ) :   0.9593 B( 18-C , 49-H ) :   0.9800 
B( 18-C , 50-H ) :   0.9817 B( 18-C , 51-H ) :   0.9822 B( 19-C , 20-F ) :   0.7716 
B( 19-C , 21-C ) :   0.9218 B( 21-C , 22-O ) :   0.9536 B( 21-C , 23-C ) :   1.0522 
B( 21-C , 52-H ) :   0.9520 B( 22-O , 53-H ) :   0.9587 B( 23-C , 24-C ) :   0.9872 
B( 23-C , 54-H ) :   0.9542 B( 23-C , 55-H ) :   0.9458 B( 24-C , 25-C ) :   0.9941 
B( 24-C , 26-C ) :   0.8629 B( 25-C , 56-H ) :   0.9772 B( 25-C , 57-H ) :   0.9768 
B( 25-C , 58-H ) :   0.9772 B( 26-C , 27-C ) :   0.9018 B( 26-C , 31-O ) :   0.8842 
B( 27-C , 28-O ) :   2.0041 B( 27-C , 29-C ) :   0.9554 B( 29-C , 30-O ) :   0.9433 
B( 29-C , 59-H ) :   0.9655 B( 29-C , 60-H ) :   0.9575 B( 30-O , 61-H ) :   0.9527 


-------
TIMINGS
-------

Total SCF time: 0 days 0 hours 1 min 25 sec 

Total time                  ....      85.558 sec
Sum of individual times     ....      84.921 sec  ( 99.3%)

Fock matrix formation       ....      82.519 sec  ( 96.4%)
Diagonalization             ....       0.815 sec  (  1.0%)
Density matrix formation    ....       0.041 sec  (  0.0%)
Population analysis         ....       0.079 sec  (  0.1%)
Initial guess               ....       0.385 sec  (  0.4%)
Orbital Transformation      ....       0.000 sec  (  0.0%)
Orbital Orthonormalization  ....       0.000 sec  (  0.0%)
DIIS solution               ....       0.344 sec  (  0.4%)
SOSCF solution              ....       0.402 sec  (  0.5%)

Maximum memory used throughout the entire SCF-calculation: 259.5 MB

-------------------------   --------------------
FINAL SINGLE POINT ENERGY     -1573.104655237151
-------------------------   --------------------


                            ***************************************
                            *     ORCA property calculations      *
                            ***************************************

                                    ---------------------
                                    Active property flags
                                    ---------------------
   (+) Dipole Moment


------------------------------------------------------------------------------
                       ORCA ELECTRIC PROPERTIES CALCULATION
------------------------------------------------------------------------------

Dipole Moment Calculation                       ... on
Quadrupole Moment Calculation                   ... off
Polarizability Calculation                      ... off
GBWName                                         ... ./ZINC000000000016/ZINC000000000016.gbw
Electron density                                ... ./ZINC000000000016/ZINC000000000016.scfp
The origin for moment calculation is the CENTER OF MASS  = ( 0.653119, -0.089076  0.537161)

-------------
DIPOLE MOMENT
-------------
                                X             Y             Z
Electronic contribution:     23.18369      -5.15077      13.20178
Nuclear contribution   :    -25.53737       4.83188     -15.51403
                        -----------------------------------------
Total Dipole Moment    :     -2.35367      -0.31889      -2.31225
                        -----------------------------------------
Magnitude (a.u.)       :      3.31481
Magnitude (Debye)      :      8.42558



--------------------
Rotational spectrum 
--------------------
 
Rotational constants in cm-1:     0.009402     0.002853     0.002709 
Rotational constants in MHz :   281.868831    85.537274    81.213820 

 Dipole components along the rotational axes: 
x,y,z [a.u.] :    -2.606158    -2.008203     0.403775 
x,y,z [Debye]:    -6.624328    -5.104447     1.026314 

 

Timings for individual modules:

Sum of individual times         ...       86.416 sec (=   1.440 min)
GTO integral calculation        ...        0.586 sec (=   0.010 min)   0.7 %
SCF iterations                  ...       85.830 sec (=   1.431 min)  99.3 %
                             ****ORCA TERMINATED NORMALLY****
TOTAL RUN TIME: 0 days 0 hours 1 minutes 26 seconds 950 msec
