
                                 *****************
                                 * O   R   C   A *
                                 *****************

                                            #,                                       
                                            ###                                      
                                            ####                                     
                                            #####                                    
                                            ######                                   
                                           ########,                                 
                                     ,,################,,,,,                         
                               ,,#################################,,                 
                          ,,##########################################,,             
                       ,#########################################, ''#####,          
                    ,#############################################,,   '####,        
                  ,##################################################,,,,####,       
                ,###########''''           ''''###############################       
              ,#####''   ,,,,##########,,,,          '''####'''          '####       
            ,##' ,,,,###########################,,,                        '##       
           ' ,,###''''                  '''############,,,                           
         ,,##''                                '''############,,,,        ,,,,,,###''
      ,#''                                            '''#######################'''  
     '                                                          ''''####''''         
             ,#######,   #######,   ,#######,      ##                                
            ,#'     '#,  ##    ##  ,#'     '#,    #''#        ######   ,####,        
            ##       ##  ##   ,#'  ##            #'  '#       #        #'  '#        
            ##       ##  #######   ##           ,######,      #####,   #    #        
            '#,     ,#'  ##    ##  '#,     ,#' ,#      #,         ##   #,  ,#        
             '#######'   ##     ##  '#######'  #'      '#     #####' # '####'        



                  #######################################################
                  #                        -***-                        #
                  #          Department of theory and spectroscopy      #
                  #    Directorship and core code : Frank Neese         #
                  #        Max Planck Institute fuer Kohlenforschung    #
                  #                Kaiser Wilhelm Platz 1               #
                  #                 D-45470 Muelheim/Ruhr               #
                  #                      Germany                        #
                  #                                                     #
                  #                  All rights reserved                #
                  #                        -***-                        #
                  #######################################################


                         Program Version 5.0.3 -  RELEASE  -


 With contributions from (in alphabetic order):
   Daniel Aravena         : Magnetic Suceptibility
   Michael Atanasov       : Ab Initio Ligand Field Theory (pilot matlab implementation)
   Alexander A. Auer      : GIAO ZORA, VPT2 properties, NMR spectrum
   Ute Becker             : Parallelization
   Giovanni Bistoni       : ED, misc. LED, open-shell LED, HFLD
   Martin Brehm           : Molecular dynamics
   Dmytro Bykov           : SCF Hessian
   Vijay G. Chilkuri      : MRCI spin determinant printing, contributions to CSF-ICE
   Dipayan Datta          : RHF DLPNO-CCSD density
   Achintya Kumar Dutta   : EOM-CC, STEOM-CC
   Dmitry Ganyushin       : Spin-Orbit,Spin-Spin,Magnetic field MRCI
   Miquel Garcia          : C-PCM and meta-GGA Hessian, CC/C-PCM, Gaussian charge scheme
   Yang Guo               : DLPNO-NEVPT2, F12-NEVPT2, CIM, IAO-localization
   Andreas Hansen         : Spin unrestricted coupled pair/coupled cluster methods
   Benjamin Helmich-Paris : MC-RPA, TRAH-SCF, COSX integrals
   Lee Huntington         : MR-EOM, pCC
   Robert Izsak           : Overlap fitted RIJCOSX, COSX-SCS-MP3, EOM
   Marcus Kettner         : VPT2
   Christian Kollmar      : KDIIS, OOCD, Brueckner-CCSD(T), CCSD density, CASPT2, CASPT2-K
   Simone Kossmann        : Meta GGA functionals, TD-DFT gradient, OOMP2, MP2 Hessian
   Martin Krupicka        : Initial AUTO-CI
   Lucas Lang             : DCDCAS
   Marvin Lechner         : AUTO-CI (C++ implementation), FIC-MRCC
   Dagmar Lenk            : GEPOL surface, SMD
   Dimitrios Liakos       : Extrapolation schemes; Compound Job, initial MDCI parallelization
   Dimitrios Manganas     : Further ROCIS development; embedding schemes
   Dimitrios Pantazis     : SARC Basis sets
   Anastasios Papadopoulos: AUTO-CI, single reference methods and gradients
   Taras Petrenko         : DFT Hessian,TD-DFT gradient, ASA, ECA, R-Raman, ABS, FL, XAS/XES, NRVS
   Peter Pinski           : DLPNO-MP2, DLPNO-MP2 Gradient
   Christoph Reimann      : Effective Core Potentials
   Marius Retegan         : Local ZFS, SOC
   Christoph Riplinger    : Optimizer, TS searches, QM/MM, DLPNO-CCSD(T), (RO)-DLPNO pert. Triples
   Tobias Risthaus        : Range-separated hybrids, TD-DFT gradient, RPA, STAB
   Michael Roemelt        : Original ROCIS implementation
   Masaaki Saitow         : Open-shell DLPNO-CCSD energy and density
   Barbara Sandhoefer     : DKH picture change effects
   Avijit Sen             : IP-ROCIS
   Kantharuban Sivalingam : CASSCF convergence, NEVPT2, FIC-MRCI
   Bernardo de Souza      : ESD, SOC TD-DFT
   Georgi Stoychev        : AutoAux, RI-MP2 NMR, DLPNO-MP2 response
   Willem Van den Heuvel  : Paramagnetic NMR
   Boris Wezisla          : Elementary symmetry handling
   Frank Wennmohs         : Technical directorship


 We gratefully acknowledge several colleagues who have allowed us to
 interface, adapt or use parts of their codes:
   Stefan Grimme, W. Hujo, H. Kruse, P. Pracht,  : VdW corrections, initial TS optimization,
                  C. Bannwarth, S. Ehlert          DFT functionals, gCP, sTDA/sTD-DF
   Ed Valeev, F. Pavosevic, A. Kumar             : LibInt (2-el integral package), F12 methods
   Garnet Chan, S. Sharma, J. Yang, R. Olivares  : DMRG
   Ulf Ekstrom                                   : XCFun DFT Library
   Mihaly Kallay                                 : mrcc  (arbitrary order and MRCC methods)
   Jiri Pittner, Ondrej Demel                    : Mk-CCSD
   Frank Weinhold                                : gennbo (NPA and NBO analysis)
   Christopher J. Cramer and Donald G. Truhlar   : smd solvation model
   Lars Goerigk                                  : TD-DFT with DH, B97 family of functionals
   V. Asgeirsson, H. Jonsson                     : NEB implementation
   FAccTs GmbH                                   : IRC, NEB, NEB-TS, DLPNO-Multilevel, CI-OPT
                                                   MM, QMMM, 2- and 3-layer-ONIOM, Crystal-QMMM,
                                                   LR-CPCM, SF, NACMEs, symmetry and pop. for TD-DFT,
                                                   nearIR, NL-DFT gradient (VV10), updates on ESD,
                                                   ML-optimized integration grids
   S Lehtola, MJT Oliveira, MAL Marques          : LibXC Library
   Liviu Ungur et al                             : ANISO software


 Your calculation uses the libint2 library for the computation of 2-el integrals
 For citations please refer to: http://libint.valeyev.net

 Your ORCA version has been built with support for libXC version: 5.1.0
 For citations please refer to: https://tddft.org/programs/libxc/

 This ORCA versions uses:
   CBLAS   interface :  Fast vector & matrix operations
   LAPACKE interface :  Fast linear algebra routines
   SCALAPACK package :  Parallel linear algebra routines
   Shared memory     :  Shared parallel matrices
   BLAS/LAPACK       :  OpenBLAS 0.3.15  USE64BITINT DYNAMIC_ARCH NO_AFFINITY Zen SINGLE_THREADED
        Core in use  :  Zen
   Copyright (c) 2011-2014, The OpenBLAS Project


================================================================================

----- Orbital basis set information -----
Your calculation utilizes the basis: def2-SVP
   F. Weigend and R. Ahlrichs, Phys. Chem. Chem. Phys. 7, 3297 (2005).

================================================================================
                                        WARNINGS
                       Please study these warnings very carefully!
================================================================================


INFO   : the flag for use of the SHARK integral package has been found!

================================================================================
                                       INPUT FILE
================================================================================
NAME = ./ZINC000000000157/ZINC000000000157.inp
|  1> !RHF def2-SVP TightSCF PAL16 
|  2> *xyz 0 1
|  3> C -1.152967632693563 2.527513263176825 -1.339056762107361
|  4> C -1.2926081503754552 1.4546696341154857 -0.22041500890766333
|  5> C -0.8629290612479097 2.1228058769380755 1.1025895433273538
|  6> C -2.8125398443427763 1.1816379328238058 -0.14979543062748019
|  7> C -3.096886218518426 -0.15115387285630072 0.4526793592565341
|  8> O -3.8812164497341977 -0.307441975945714 1.3845966565949293
|  9> C -2.4253727677559698 -1.2875311653853734 -0.24099366195709693
| 10> C -0.8972967439690667 -1.1169314495914577 -0.14437892211722703
| 11> C -0.4768287881696398 -1.5123835016225915 1.2904795108612412
| 12> C -0.32691358431867895 -2.184673721833127 -1.1126950000835054
| 13> N -0.4458012461559712 0.25810061153185787 -0.48355538139606574
| 14> C 0.9060239593717786 0.470399606630961 -1.028725244756018
| 15> C 2.097314668255462 -0.02503425829943047 -0.24305826033558972
| 16> C 3.056253666718261 -0.8521094712996383 -0.8431716225056497
| 17> C 4.181445330865023 -1.2560867041779828 -0.12920591677133297
| 18> C 4.329315946268047 -0.8031896612165803 1.1689219613991906
| 19> N 3.4461094950329425 0.01203102620422882 1.7792427594775524
| 20> C 2.359897972425842 0.3842003936486194 1.0599188349485347
| 21> H -1.9214930082044688 3.304167372222269 -1.2344687984929028
| 22> H -0.19411542066503773 3.054357497099007 -1.3136568612922697
| 23> H -1.276581549794465 2.0796292383201136 -2.332056415683433
| 24> H -1.4991414652148087 2.9859120577499247 1.3340031516292046
| 25> H -0.93138322295227 1.4370638443678287 1.951597292942597
| 26> H 0.16083102608427302 2.5049289150949976 1.046781133665906
| 27> H -3.340620716259423 1.9526602923177012 0.42358631768310634
| 28> H -3.2615330907438618 1.1646597629734743 -1.1518953166491368
| 29> H -2.767728481203036 -1.2865432608805485 -1.283840383130906
| 30> H -2.7639567365726334 -2.2295925030648363 0.20678955324674114
| 31> H -0.8088966469975856 -0.7833947153406164 2.0348730165801947
| 32> H 0.6034864598030519 -1.633796742975534 1.3910998639367056
| 33> H -0.9145970964947688 -2.4777325818066114 1.573883439766833
| 34> H -0.529363634643371 -1.9222946651026291 -2.1576733627151254
| 35> H 0.7486125414546551 -2.330944152733791 -0.9977148195426054
| 36> H -0.7874914009588384 -3.1639930579530215 -0.9310498236400223
| 37> H 0.9276664012332487 0.04296901308630673 -2.039418498287307
| 38> H 1.1221889114500443 1.5297820351371392 -1.1903305711207293
| 39> H 2.931369775747215 -1.1885255388851672 -1.8696748234020366
| 40> H 4.926385812676449 -1.9037947571791047 -0.5770861543663384
| 41> H 5.1886234847665476 -1.088263006035989 1.7686474971560375
| 42> H 1.6827375058323437 1.0379223907469983 1.5967546147188203
| 43> *
| 44> 
| 45>                          ****END OF INPUT****
================================================================================

                       ****************************
                       * Single Point Calculation *
                       ****************************

---------------------------------
CARTESIAN COORDINATES (ANGSTROEM)
---------------------------------
  C     -1.152968    2.527513   -1.339057
  C     -1.292608    1.454670   -0.220415
  C     -0.862929    2.122806    1.102590
  C     -2.812540    1.181638   -0.149795
  C     -3.096886   -0.151154    0.452679
  O     -3.881216   -0.307442    1.384597
  C     -2.425373   -1.287531   -0.240994
  C     -0.897297   -1.116931   -0.144379
  C     -0.476829   -1.512384    1.290480
  C     -0.326914   -2.184674   -1.112695
  N     -0.445801    0.258101   -0.483555
  C      0.906024    0.470400   -1.028725
  C      2.097315   -0.025034   -0.243058
  C      3.056254   -0.852109   -0.843172
  C      4.181445   -1.256087   -0.129206
  C      4.329316   -0.803190    1.168922
  N      3.446109    0.012031    1.779243
  C      2.359898    0.384200    1.059919
  H     -1.921493    3.304167   -1.234469
  H     -0.194115    3.054357   -1.313657
  H     -1.276582    2.079629   -2.332056
  H     -1.499141    2.985912    1.334003
  H     -0.931383    1.437064    1.951597
  H      0.160831    2.504929    1.046781
  H     -3.340621    1.952660    0.423586
  H     -3.261533    1.164660   -1.151895
  H     -2.767728   -1.286543   -1.283840
  H     -2.763957   -2.229593    0.206790
  H     -0.808897   -0.783395    2.034873
  H      0.603486   -1.633797    1.391100
  H     -0.914597   -2.477733    1.573883
  H     -0.529364   -1.922295   -2.157673
  H      0.748613   -2.330944   -0.997715
  H     -0.787491   -3.163993   -0.931050
  H      0.927666    0.042969   -2.039418
  H      1.122189    1.529782   -1.190331
  H      2.931370   -1.188526   -1.869675
  H      4.926386   -1.903795   -0.577086
  H      5.188623   -1.088263    1.768647
  H      1.682738    1.037922    1.596755

----------------------------
CARTESIAN COORDINATES (A.U.)
----------------------------
  NO LB      ZA    FRAG     MASS         X           Y           Z
   0 C     6.0000    0    12.011   -2.178793    4.776308   -2.530451
   1 C     6.0000    0    12.011   -2.442675    2.748927   -0.416524
   2 C     6.0000    0    12.011   -1.630700    4.011522    2.083592
   3 C     6.0000    0    12.011   -5.314930    2.232972   -0.283072
   4 C     6.0000    0    12.011   -5.852267   -0.285639    0.855440
   5 O     8.0000    0    15.999   -7.334436   -0.580981    2.616508
   6 C     6.0000    0    12.011   -4.583290   -2.433081   -0.455412
   7 C     6.0000    0    12.011   -1.695645   -2.110695   -0.272837
   8 C     6.0000    0    12.011   -0.901076   -2.857991    2.438653
   9 C     6.0000    0    12.011   -0.617777   -4.128435   -2.102689
  10 N     7.0000    0    14.007   -0.842442    0.487739   -0.913787
  11 C     6.0000    0    12.011    1.712137    0.888926   -1.944009
  12 C     6.0000    0    12.011    3.963350   -0.047308   -0.459314
  13 C     6.0000    0    12.011    5.775482   -1.610254   -1.593363
  14 C     6.0000    0    12.011    7.901787   -2.373660   -0.244164
  15 C     6.0000    0    12.011    8.181221   -1.517808    2.208942
  16 N     7.0000    0    14.007    6.512203    0.022735    3.362282
  17 C     6.0000    0    12.011    4.459561    0.726034    2.002956
  18 H     1.0000    0     1.008   -3.631096    6.243971   -2.332808
  19 H     1.0000    0     1.008   -0.366825    5.771899   -2.482452
  20 H     1.0000    0     1.008   -2.412390    3.929930   -4.406948
  21 H     1.0000    0     1.008   -2.832967    5.642556    2.520901
  22 H     1.0000    0     1.008   -1.760059    2.715657    3.687984
  23 H     1.0000    0     1.008    0.303927    4.733630    1.978130
  24 H     1.0000    0     1.008   -6.312858    3.689993    0.800462
  25 H     1.0000    0     1.008   -6.163404    2.200888   -2.176767
  26 H     1.0000    0     1.008   -5.230249   -2.431214   -2.426107
  27 H     1.0000    0     1.008   -5.223121   -4.213319    0.390776
  28 H     1.0000    0     1.008   -1.528593   -1.480401    3.845353
  29 H     1.0000    0     1.008    1.140424   -3.087428    2.628798
  30 H     1.0000    0     1.008   -1.728338   -4.682236    2.974209
  31 H     1.0000    0     1.008   -1.000352   -3.632610   -4.077412
  32 H     1.0000    0     1.008    1.414673   -4.404846   -1.885408
  33 H     1.0000    0     1.008   -1.488143   -5.979080   -1.759429
  34 H     1.0000    0     1.008    1.753035    0.081200   -3.853942
  35 H     1.0000    0     1.008    2.120630    2.890869   -2.249399
  36 H     1.0000    0     1.008    5.539486   -2.245988   -3.533173
  37 H     1.0000    0     1.008    9.309520   -3.597651   -1.090535
  38 H     1.0000    0     1.008    9.805077   -2.056519    3.342259
  39 H     1.0000    0     1.008    3.179913    1.961389    3.017429

--------------------------------
INTERNAL COORDINATES (ANGSTROEM)
--------------------------------
 C      0   0   0     0.000000000000     0.00000000     0.00000000
 C      1   0   0     1.556230156049     0.00000000     0.00000000
 C      2   1   0     1.543169207780   107.02553435     0.00000000
 C      2   1   3     1.545873794678   104.05308088   114.33157809
 C      4   2   1     1.490021050268   111.35128962   157.71406836
 O      5   4   2     1.228034906607   122.85817336   128.55088600
 C      5   4   2     1.491129077542   114.05642296   304.18461241
 C      7   5   4     1.540602156774   109.45781860    62.40972903
 C      8   7   5     1.546607367757   107.42885549    76.23366351
 C      8   7   5     1.550176291779   104.44846099   190.39063858
 N      8   7   5     1.486473014956   112.91660958   312.94989093
 C     11   8   7     1.472994375256   119.77021777   207.42084853
 C     12  11   8     1.510596199519   118.94598941   303.82547633
 C     13  12  11     1.401339879611   120.69684336   127.14586380
 C     14  13  12     1.392480130815   120.30494725   177.16416063
 C     15  14  13     1.382793346276   118.21145278   359.05441995
 N     16  15  14     1.348009599843   123.57612672   359.74591303
 C     17  16  15     1.354914173779   116.80812857     0.44310325
 H      1   2   3     1.097616280872   110.88402142   289.44963601
 H      1   2   3     1.094352578601   113.19246866    48.04305836
 H      1   2   3     1.096325139831   111.05814148   170.31372866
 H      3   2   1     1.096936990180   111.10285294    60.13778296
 H      3   2   1     1.093500007497   112.12920924   179.89669223
 H      3   2   1     1.094174260022   111.59222397   301.84711772
 H      4   2   1     1.096408461943   111.91621013   280.00112086
 H      4   2   1     1.098220094120   111.28593332    39.57545598
 H      7   5   4     1.097605436552   107.50803743   300.96663615
 H      7   5   4     1.096644188289   109.00655396   185.31061230
 H      9   8   7     1.093533449305   112.24265856   289.72595446
 H      9   8   7     1.091763099592   112.51671246   167.42983653
 H      9   8   7     1.097204504778   110.86247603    49.10745332
 H     10   8   7     1.096270299997   111.26122925    70.11737947
 H     10   8   7     1.091499852540   112.89630720   192.16437905
 H     10   8   7     1.097357397298   110.90788834   311.02603263
 H     12  11   8     1.097572849665   107.62477018    69.14816699
 H     12  11   8     1.093222163078   112.07648761   182.57640882
 H     14  13  12     1.087419228359   120.54776842   357.02311375
 H     15  14  13     1.084001268723   121.11807254   179.37608529
 H     16  15  14     1.085977428810   121.13605093   180.02745200
 H     18  17  16     1.083554983122   113.80944591   179.96028064

---------------------------
INTERNAL COORDINATES (A.U.)
---------------------------
 C      0   0   0     0.000000000000     0.00000000     0.00000000
 C      1   0   0     2.940848796283     0.00000000     0.00000000
 C      2   1   0     2.916167181005   107.02553435     0.00000000
 C      2   1   3     2.921278109548   104.05308088   114.33157809
 C      4   2   1     2.815731718784   111.35128962   157.71406836
 O      5   4   2     2.320649656382   122.85817336   128.55088600
 C      5   4   2     2.817825586880   114.05642296   304.18461241
 C      7   5   4     2.911316157631   109.45781860    62.40972903
 C      8   7   5     2.922664361765   107.42885549    76.23366351
 C      8   7   5     2.929408650759   104.44846099   190.39063858
 N      8   7   5     2.809026903730   112.91660958   312.94989093
 C     11   8   7     2.783555966040   119.77021777   207.42084853
 C     12  11   8     2.854613116033   118.94598941   303.82547633
 C     13  12  11     2.648148593006   120.69684336   127.14586380
 C     14  13  12     2.631406094167   120.30494725   177.16416063
 C     15  14  13     2.613100724271   118.21145278   359.05441995
 N     16  15  14     2.547368969600   123.57612672   359.74591303
 C     17  16  15     2.560416723411   116.80812857     0.44310325
 H      1   2   3     2.074194170980   110.88402142   289.44963601
 H      1   2   3     2.068026667506   113.19246866    48.04305836
 H      1   2   3     2.071754268013   111.05814148   170.31372866
 H      3   2   1     2.072910497607   111.10285294    60.13778296
 H      3   2   1     2.066415541609   112.12920924   179.89669223
 H      3   2   1     2.067689694227   111.59222397   301.84711772
 H      4   2   1     2.071911723985   111.91621013   280.00112086
 H      4   2   1     2.075335212657   111.28593332    39.57545598
 H      7   5   4     2.074173678186   107.50803743   300.96663615
 H      7   5   4     2.072357182223   109.00655396   185.31061230
 H      9   8   7     2.066478737468   112.24265856   289.72595446
 H      9   8   7     2.063133261350   112.51671246   167.42983653
 H      9   8   7     2.073416026935   110.86247603    49.10745332
 H     10   8   7     2.071650635746   111.26122925    70.11737947
 H     10   8   7     2.062635796515   112.89630720   192.16437905
 H     10   8   7     2.073704951926   110.90788834   311.02603263
 H     12  11   8     2.074112097894   107.62477018    69.14816699
 H     12  11   8     2.065890491750   112.07648761   182.57640882
 H     14  13  12     2.054924534358   120.54776842   357.02311375
 H     15  14  13     2.048465526709   121.11807254   179.37608529
 H     16  15  14     2.052199928072   121.13605093   180.02745200
 H     18  17  16     2.047622169147   113.80944591   179.96028064

---------------------
BASIS SET INFORMATION
---------------------
There are 4 groups of distinct atoms

 Group   1 Type C   : 7s4p1d contracted to 3s2p1d pattern {511/31/1}
 Group   2 Type O   : 7s4p1d contracted to 3s2p1d pattern {511/31/1}
 Group   3 Type N   : 7s4p1d contracted to 3s2p1d pattern {511/31/1}
 Group   4 Type H   : 4s1p contracted to 2s1p pattern {31/1}

Atom   0C    basis set group =>   1
Atom   1C    basis set group =>   1
Atom   2C    basis set group =>   1
Atom   3C    basis set group =>   1
Atom   4C    basis set group =>   1
Atom   5O    basis set group =>   2
Atom   6C    basis set group =>   1
Atom   7C    basis set group =>   1
Atom   8C    basis set group =>   1
Atom   9C    basis set group =>   1
Atom  10N    basis set group =>   3
Atom  11C    basis set group =>   1
Atom  12C    basis set group =>   1
Atom  13C    basis set group =>   1
Atom  14C    basis set group =>   1
Atom  15C    basis set group =>   1
Atom  16N    basis set group =>   3
Atom  17C    basis set group =>   1
Atom  18H    basis set group =>   4
Atom  19H    basis set group =>   4
Atom  20H    basis set group =>   4
Atom  21H    basis set group =>   4
Atom  22H    basis set group =>   4
Atom  23H    basis set group =>   4
Atom  24H    basis set group =>   4
Atom  25H    basis set group =>   4
Atom  26H    basis set group =>   4
Atom  27H    basis set group =>   4
Atom  28H    basis set group =>   4
Atom  29H    basis set group =>   4
Atom  30H    basis set group =>   4
Atom  31H    basis set group =>   4
Atom  32H    basis set group =>   4
Atom  33H    basis set group =>   4
Atom  34H    basis set group =>   4
Atom  35H    basis set group =>   4
Atom  36H    basis set group =>   4
Atom  37H    basis set group =>   4
Atom  38H    basis set group =>   4
Atom  39H    basis set group =>   4


           ************************************************************
           *        Program running with 16 parallel MPI-processes    *
           *              working on a common directory               *
           ************************************************************
------------------------------------------------------------------------------
                           ORCA GTO INTEGRAL CALCULATION
------------------------------------------------------------------------------
------------------------------------------------------------------------------
                   ___                                                        
                  /   \      - P O W E R E D   B Y -                         
                 /     \                                                     
                 |  |  |   _    _      __       _____    __    __             
                 |  |  |  | |  | |    /  \     |  _  \  |  |  /  |          
                  \  \/   | |  | |   /    \    | | | |  |  | /  /          
                 / \  \   | |__| |  /  /\  \   | |_| |  |  |/  /          
                |  |  |   |  __  | /  /__\  \  |    /   |      \           
                |  |  |   | |  | | |   __   |  |    \   |  |\   \          
                \     /   | |  | | |  |  |  |  | |\  \  |  | \   \       
                 \___/    |_|  |_| |__|  |__|  |_| \__\ |__|  \__/        
                                                                              
                      - O R C A' S   B I G   F R I E N D -                    
                                      &                                       
                       - I N T E G R A L  F E E D E R -                       
                                                                              
 v1 FN, 2020, v2 2021                                                         
------------------------------------------------------------------------------


Reading SHARK input file ./ZINC000000000157/ZINC000000000157.SHARKINP.tmp ... ok
----------------------
SHARK INTEGRAL PACKAGE
----------------------

Number of atoms                             ...     40
Number of basis functions                   ...    362
Number of shells                            ...    174
Maximum angular momentum                    ...      2
Integral batch strategy                     ... SHARK/LIBINT Hybrid
RI-J (if used) integral strategy            ... SPLIT-RIJ (Revised 2003 algorithm where possible)
Printlevel                                  ...      1
Contraction scheme used                     ... SEGMENTED contraction
Coulomb Range Separation                    ... NOT USED
Exchange Range Separation                   ... NOT USED
Finite Nucleus Model                        ... NOT USED
Auxiliary Coulomb fitting basis             ... NOT available
Auxiliary J/K fitting basis                 ... NOT available
Auxiliary Correlation fitting basis         ... NOT available
Auxiliary 'external' fitting basis          ... NOT available
Integral threshold                          ...     2.500000e-11
Primitive cut-off                           ...     2.500000e-12
Primitive pair pre-selection threshold      ...     2.500000e-12

Calculating pre-screening integrals         ... done (  0.0 sec) Dimension = 174
Organizing shell pair data                  ... done (  0.1 sec)
Shell pair information
Total number of shell pairs                 ...     15225
Shell pairs after pre-screening             ...     12871
Total number of primitive shell pairs       ...     53601
Primitive shell pairs kept                  ...     30142
          la=0 lb=0:   4227 shell pairs
          la=1 lb=0:   4840 shell pairs
          la=1 lb=1:   1431 shell pairs
          la=2 lb=0:   1436 shell pairs
          la=2 lb=1:    816 shell pairs
          la=2 lb=2:    121 shell pairs

Calculating one electron integrals          ... done (  0.0 sec)
Calculating Nuclear repulsion               ... done (  0.0 sec) ENN=   1407.951149142446 Eh

SHARK setup successfully completed in   0.2 seconds

Maximum memory used throughout the entire GTOINT-calculation: 19.1 MB


           ************************************************************
           *        Program running with 16 parallel MPI-processes    *
           *              working on a common directory               *
           ************************************************************
-------------------------------------------------------------------------------
                                 ORCA SCF
-------------------------------------------------------------------------------

------------
SCF SETTINGS
------------
Hamiltonian:
 Ab initio Hamiltonian  Method          .... Hartree-Fock(GTOs)


General Settings:
 Integral files         IntName         .... ./ZINC000000000157/ZINC000000000157
 Hartree-Fock type      HFTyp           .... RHF
 Total Charge           Charge          ....    0
 Multiplicity           Mult            ....    1
 Number of Electrons    NEL             ....  134
 Basis Dimension        Dim             ....  362
 Nuclear Repulsion      ENuc            ....   1407.9511491424 Eh

Convergence Acceleration:
 DIIS                   CNVDIIS         .... on
   Start iteration      DIISMaxIt       ....    12
   Startup error        DIISStart       ....  0.200000
   # of expansion vecs  DIISMaxEq       ....     5
   Bias factor          DIISBfac        ....   1.050
   Max. coefficient     DIISMaxC        ....  10.000
 Trust-Rad. Augm. Hess. CNVTRAH         .... auto
   Auto Start mean grad. ratio tolernc. ....  1.125000
   Auto Start start iteration           ....    20
   Auto Start num. interpolation iter.  ....    10
   Max. Number of Micro iterations      ....    16
   Max. Number of Macro iterations      .... Maxiter - #DIIS iter
   Number of Davidson start vectors     ....     2
   Converg. threshold I  (grad. norm)   ....   1.000e-05
   Converg. threshold II (energy diff.) ....   1.000e-08
   Grad. Scal. Fac. for Micro threshold ....   0.100
   Minimum threshold for Micro iter.    ....   0.010
   NR start threshold (gradient norm)   ....   0.001
   Initial trust radius                 ....   0.400
   Minimum AH scaling param. (alpha)    ....   1.000
   Maximum AH scaling param. (alpha)    .... 1000.000
   Orbital update algorithm             .... Taylor
   White noise on init. David. guess    .... on
   Maximum white noise                  ....   0.010
   Quad. conv. algorithm                .... NR
 SOSCF                  CNVSOSCF        .... on
   Start iteration      SOSCFMaxIt      ....   150
   Startup grad/error   SOSCFStart      ....  0.003300
 Level Shifting         CNVShift        .... on
   Level shift para.    LevelShift      ....    0.2500
   Turn off err/grad.   ShiftErr        ....    0.0010
 Zerner damping         CNVZerner       .... off
 Static damping         CNVDamp         .... on
   Fraction old density DampFac         ....    0.7000
   Max. Damping (<1)    DampMax         ....    0.9800
   Min. Damping (>=0)   DampMin         ....    0.0000
   Turn off err/grad.   DampErr         ....    0.1000
 Fernandez-Rico         CNVRico         .... off

SCF Procedure:
 Maximum # iterations   MaxIter         ....   125
 SCF integral mode      SCFMode         .... Direct
   Integral package                     .... SHARK and LIBINT hybrid scheme
 Reset frequency        DirectResetFreq ....    20
 Integral Threshold     Thresh          ....  2.500e-11 Eh
 Primitive CutOff       TCut            ....  2.500e-12 Eh

Convergence Tolerance:
 Convergence Check Mode ConvCheckMode   .... Total+1el-Energy
 Convergence forced     ConvForced      .... 0
 Energy Change          TolE            ....  1.000e-08 Eh
 1-El. energy change                    ....  1.000e-05 Eh
 Orbital Gradient       TolG            ....  1.000e-05
 Orbital Rotation angle TolX            ....  1.000e-05
 DIIS Error             TolErr          ....  5.000e-07


Diagonalization of the overlap matrix:
Smallest eigenvalue                        ... 6.046e-04
Time for diagonalization                   ...    0.016 sec
Threshold for overlap eigenvalues          ... 1.000e-08
Number of eigenvalues below threshold      ... 0
Time for construction of square roots      ...    0.012 sec
Total time needed                          ...    0.029 sec

Time for model grid setup =    0.154 sec

------------------------------
INITIAL GUESS: MODEL POTENTIAL
------------------------------
Loading Hartree-Fock densities                     ... done
Calculating cut-offs                               ... done
Initializing the effective Hamiltonian             ... done
Setting up the integral package (SHARK)            ... done
Starting the Coulomb interaction                   ... done (   0.1 sec)
Reading the grid                                   ... done
Mapping shells                                     ... done
Starting the XC term evaluation                    ... done (   0.0 sec)
Transforming the Hamiltonian                       ... done (   0.0 sec)
Diagonalizing the Hamiltonian                      ... done (   0.0 sec)
Back transforming the eigenvectors                 ... done (   0.0 sec)
Now organizing SCF variables                       ... done
                      ------------------
                      INITIAL GUESS DONE (   0.3 sec)
                      ------------------
--------------
SCF ITERATIONS
--------------
ITER       Energy         Delta-E        Max-DP      RMS-DP      [F,P]     Damp
               ***  Starting incremental Fock matrix formation  ***
  0   -763.3073386006   0.000000000000 0.06937313  0.00162442  0.2251388 0.7000
  1   -763.5392649145  -0.231926313872 0.04884826  0.00125432  0.1380111 0.7000
                               ***Turning on DIIS***
  2   -763.6831765173  -0.143911602816 0.09667656  0.00284875  0.0784088 0.0000
  3   -762.8054588197   0.877717697633 0.04732279  0.00086011  0.0520049 0.0000
  4   -763.9459500888  -1.140491269153 0.01928263  0.00030435  0.0081530 0.0000
  5   -763.9664107314  -0.020460642560 0.00931333  0.00014062  0.0075243 0.0000
                      *** Initiating the SOSCF procedure ***
                           *** Shutting down DIIS ***
                      *** Re-Reading the Fockian *** 
                      *** Removing any level shift *** 
ITER      Energy       Delta-E        Grad      Rot      Max-DP    RMS-DP
  6   -763.98561735  -0.0192066234  0.001405  0.001405  0.003903  0.000062
               *** Restarting incremental Fock matrix formation ***
  7   -763.98494183   0.0006755294  0.000525  0.000877  0.002320  0.000030
  8   -763.98495149  -0.0000096689  0.000314  0.001071  0.002027  0.000027
  9   -763.98495436  -0.0000028697  0.000073  0.000075  0.000232  0.000005
 10   -763.98495469  -0.0000003211  0.000026  0.000044  0.000135  0.000002
 11   -763.98495474  -0.0000000525  0.000006  0.000015  0.000039  0.000001
                  ***Gradient check signals convergence***
              ***Rediagonalizing the Fockian in SOSCF/NRSCF***

               *****************************************************
               *                     SUCCESS                       *
               *           SCF CONVERGED AFTER  12 CYCLES          *
               *****************************************************


----------------
TOTAL SCF ENERGY
----------------

Total Energy       :         -763.98495474 Eh          -20789.08752 eV

Components:
Nuclear Repulsion  :         1407.95114914 Eh           38312.29853 eV
Electronic Energy  :        -2171.93610389 Eh          -59101.38604 eV
One Electron Energy:        -3834.69634042 Eh         -104347.39234 eV
Two Electron Energy:         1662.76023653 Eh           45246.00630 eV

Virial components:
Potential Energy   :        -1523.91968387 Eh          -41467.96279 eV
Kinetic Energy     :          759.93472912 Eh           20678.87527 eV
Virial Ratio       :            2.00532970


---------------
SCF CONVERGENCE
---------------

  Last Energy change         ...   -6.7384e-09  Tolerance :   1.0000e-08
  Last MAX-Density change    ...    1.6436e-05  Tolerance :   1.0000e-07
  Last RMS-Density change    ...    2.4061e-07  Tolerance :   5.0000e-09
  Last Orbital Gradient      ...    1.9249e-06  Tolerance :   1.0000e-05
  Last Orbital Rotation      ...    9.4636e-06  Tolerance :   1.0000e-05

             **** THE GBW FILE WAS UPDATED (./ZINC000000000157/ZINC000000000157.gbw) ****
             **** DENSITY ./ZINC000000000157/ZINC000000000157.scfp WAS UPDATED ****
             **** ENERGY FILE WAS UPDATED (./ZINC000000000157/ZINC000000000157.en.tmp) ****
             **** THE GBW FILE WAS UPDATED (./ZINC000000000157/ZINC000000000157.gbw) ****
             **** DENSITY ./ZINC000000000157/ZINC000000000157.scfp WAS UPDATED ****
----------------
ORBITAL ENERGIES
----------------

  NO   OCC          E(Eh)            E(eV) 
   0   2.0000     -20.534702      -558.7776 
   1   2.0000     -15.566589      -423.5884 
   2   2.0000     -15.552233      -423.1978 
   3   2.0000     -11.322674      -308.1056 
   4   2.0000     -11.289527      -307.2036 
   5   2.0000     -11.286566      -307.1231 
   6   2.0000     -11.277432      -306.8745 
   7   2.0000     -11.276670      -306.8538 
   8   2.0000     -11.276421      -306.8470 
   9   2.0000     -11.263540      -306.4965 
  10   2.0000     -11.250241      -306.1346 
  11   2.0000     -11.246984      -306.0460 
  12   2.0000     -11.239566      -305.8441 
  13   2.0000     -11.235927      -305.7451 
  14   2.0000     -11.233526      -305.6798 
  15   2.0000     -11.230493      -305.5972 
  16   2.0000     -11.224277      -305.4281 
  17   2.0000     -11.216023      -305.2035 
  18   2.0000      -1.355296       -36.8795 
  19   2.0000      -1.243176       -33.8285 
  20   2.0000      -1.225189       -33.3391 
  21   2.0000      -1.098672       -29.8964 
  22   2.0000      -1.091732       -29.7075 
  23   2.0000      -1.064953       -28.9789 
  24   2.0000      -1.030990       -28.0547 
  25   2.0000      -0.984648       -26.7936 
  26   2.0000      -0.940569       -25.5942 
  27   2.0000      -0.938557       -25.5394 
  28   2.0000      -0.926991       -25.2247 
  29   2.0000      -0.917155       -24.9570 
  30   2.0000      -0.856983       -23.3197 
  31   2.0000      -0.826817       -22.4988 
  32   2.0000      -0.795819       -21.6553 
  33   2.0000      -0.762887       -20.7592 
  34   2.0000      -0.718779       -19.5590 
  35   2.0000      -0.704821       -19.1791 
  36   2.0000      -0.684794       -18.6342 
  37   2.0000      -0.671281       -18.2665 
  38   2.0000      -0.658118       -17.9083 
  39   2.0000      -0.637808       -17.3556 
  40   2.0000      -0.631537       -17.1850 
  41   2.0000      -0.628125       -17.0921 
  42   2.0000      -0.620916       -16.8960 
  43   2.0000      -0.604147       -16.4397 
  44   2.0000      -0.598961       -16.2986 
  45   2.0000      -0.584831       -15.9141 
  46   2.0000      -0.574059       -15.6209 
  47   2.0000      -0.569475       -15.4962 
  48   2.0000      -0.558532       -15.1984 
  49   2.0000      -0.552702       -15.0398 
  50   2.0000      -0.551554       -15.0086 
  51   2.0000      -0.542495       -14.7620 
  52   2.0000      -0.533540       -14.5184 
  53   2.0000      -0.529261       -14.4019 
  54   2.0000      -0.526823       -14.3356 
  55   2.0000      -0.519082       -14.1250 
  56   2.0000      -0.515434       -14.0257 
  57   2.0000      -0.499100       -13.5812 
  58   2.0000      -0.486250       -13.2315 
  59   2.0000      -0.481050       -13.0900 
  60   2.0000      -0.474831       -12.9208 
  61   2.0000      -0.458572       -12.4784 
  62   2.0000      -0.420765       -11.4496 
  63   2.0000      -0.399116       -10.8605 
  64   2.0000      -0.380354       -10.3499 
  65   2.0000      -0.352429        -9.5901 
  66   2.0000      -0.334396        -9.0994 
  67   0.0000       0.106484         2.8976 
  68   0.0000       0.120944         3.2911 
  69   0.0000       0.140612         3.8262 
  70   0.0000       0.165817         4.5121 
  71   0.0000       0.184400         5.0178 
  72   0.0000       0.193439         5.2637 
  73   0.0000       0.198984         5.4146 
  74   0.0000       0.206720         5.6251 
  75   0.0000       0.208505         5.6737 
  76   0.0000       0.220397         5.9973 
  77   0.0000       0.230066         6.2604 
  78   0.0000       0.239478         6.5165 
  79   0.0000       0.242140         6.5890 
  80   0.0000       0.255057         6.9404 
  81   0.0000       0.259101         7.0505 
  82   0.0000       0.268097         7.2953 
  83   0.0000       0.273485         7.4419 
  84   0.0000       0.276448         7.5225 
  85   0.0000       0.283892         7.7251 
  86   0.0000       0.293340         7.9822 
  87   0.0000       0.295233         8.0337 
  88   0.0000       0.307727         8.3737 
  89   0.0000       0.314675         8.5627 
  90   0.0000       0.319839         8.7033 
  91   0.0000       0.334607         9.1051 
  92   0.0000       0.339060         9.2263 
  93   0.0000       0.346403         9.4261 
  94   0.0000       0.365946         9.9579 
  95   0.0000       0.369194        10.0463 
  96   0.0000       0.369465        10.0536 
  97   0.0000       0.391262        10.6468 
  98   0.0000       0.402345        10.9484 
  99   0.0000       0.410924        11.1818 
 100   0.0000       0.414332        11.2746 
 101   0.0000       0.433947        11.8083 
 102   0.0000       0.434082        11.8120 
 103   0.0000       0.446094        12.1388 
 104   0.0000       0.466172        12.6852 
 105   0.0000       0.472070        12.8457 
 106   0.0000       0.488901        13.3037 
 107   0.0000       0.492124        13.3914 
 108   0.0000       0.509081        13.8528 
 109   0.0000       0.526781        14.3344 
 110   0.0000       0.530504        14.4357 
 111   0.0000       0.556312        15.1380 
 112   0.0000       0.573062        15.5938 
 113   0.0000       0.577707        15.7202 
 114   0.0000       0.591894        16.1062 
 115   0.0000       0.598432        16.2842 
 116   0.0000       0.610469        16.6117 
 117   0.0000       0.623115        16.9558 
 118   0.0000       0.645809        17.5733 
 119   0.0000       0.661128        17.9902 
 120   0.0000       0.666097        18.1254 
 121   0.0000       0.676228        18.4011 
 122   0.0000       0.699963        19.0470 
 123   0.0000       0.704507        19.1706 
 124   0.0000       0.706873        19.2350 
 125   0.0000       0.720875        19.6160 
 126   0.0000       0.759891        20.6777 
 127   0.0000       0.764764        20.8103 
 128   0.0000       0.773543        21.0492 
 129   0.0000       0.773699        21.0534 
 130   0.0000       0.795375        21.6433 
 131   0.0000       0.806656        21.9502 
 132   0.0000       0.815130        22.1808 
 133   0.0000       0.817605        22.2482 
 134   0.0000       0.822165        22.3722 
 135   0.0000       0.834877        22.7182 
 136   0.0000       0.837968        22.8023 
 137   0.0000       0.844391        22.9770 
 138   0.0000       0.853054        23.2128 
 139   0.0000       0.858677        23.3658 
 140   0.0000       0.860277        23.4093 
 141   0.0000       0.862363        23.4661 
 142   0.0000       0.871599        23.7174 
 143   0.0000       0.875866        23.8335 
 144   0.0000       0.877607        23.8809 
 145   0.0000       0.888375        24.1739 
 146   0.0000       0.890262        24.2252 
 147   0.0000       0.895662        24.3722 
 148   0.0000       0.902165        24.5492 
 149   0.0000       0.905715        24.6458 
 150   0.0000       0.909210        24.7409 
 151   0.0000       0.919694        25.0261 
 152   0.0000       0.921840        25.0846 
 153   0.0000       0.926243        25.2044 
 154   0.0000       0.930198        25.3120 
 155   0.0000       0.937048        25.4984 
 156   0.0000       0.940975        25.6052 
 157   0.0000       0.944516        25.7016 
 158   0.0000       0.951982        25.9048 
 159   0.0000       0.953184        25.9375 
 160   0.0000       0.958163        26.0729 
 161   0.0000       0.966928        26.3115 
 162   0.0000       0.973921        26.5017 
 163   0.0000       0.977478        26.5985 
 164   0.0000       0.981884        26.7184 
 165   0.0000       0.991576        26.9822 
 166   0.0000       0.995820        27.0976 
 167   0.0000       1.001489        27.2519 
 168   0.0000       1.008811        27.4511 
 169   0.0000       1.010252        27.4903 
 170   0.0000       1.033495        28.1228 
 171   0.0000       1.033766        28.1302 
 172   0.0000       1.041914        28.3519 
 173   0.0000       1.054081        28.6830 
 174   0.0000       1.060146        28.8480 
 175   0.0000       1.068786        29.0831 
 176   0.0000       1.091300        29.6958 
 177   0.0000       1.114412        30.3247 
 178   0.0000       1.130413        30.7601 
 179   0.0000       1.140347        31.0304 
 180   0.0000       1.155897        31.4535 
 181   0.0000       1.172099        31.8944 
 182   0.0000       1.177290        32.0357 
 183   0.0000       1.194440        32.5024 
 184   0.0000       1.214845        33.0576 
 185   0.0000       1.227542        33.4031 
 186   0.0000       1.258511        34.2458 
 187   0.0000       1.275509        34.7084 
 188   0.0000       1.282711        34.9044 
 189   0.0000       1.301024        35.4027 
 190   0.0000       1.306115        35.5412 
 191   0.0000       1.349923        36.7333 
 192   0.0000       1.365062        37.1452 
 193   0.0000       1.382192        37.6114 
 194   0.0000       1.406773        38.2802 
 195   0.0000       1.413214        38.4555 
 196   0.0000       1.436322        39.0843 
 197   0.0000       1.454424        39.5769 
 198   0.0000       1.460283        39.7363 
 199   0.0000       1.467666        39.9372 
 200   0.0000       1.478110        40.2214 
 201   0.0000       1.491423        40.5837 
 202   0.0000       1.506954        41.0063 
 203   0.0000       1.522287        41.4235 
 204   0.0000       1.529500        41.6198 
 205   0.0000       1.536421        41.8081 
 206   0.0000       1.554331        42.2955 
 207   0.0000       1.563780        42.5526 
 208   0.0000       1.580414        43.0052 
 209   0.0000       1.603473        43.6327 
 210   0.0000       1.624395        44.2020 
 211   0.0000       1.630648        44.3722 
 212   0.0000       1.642428        44.6927 
 213   0.0000       1.667211        45.3671 
 214   0.0000       1.679723        45.7076 
 215   0.0000       1.708220        46.4830 
 216   0.0000       1.721825        46.8532 
 217   0.0000       1.753356        47.7112 
 218   0.0000       1.784622        48.5620 
 219   0.0000       1.790813        48.7305 
 220   0.0000       1.816372        49.4260 
 221   0.0000       1.820470        49.5375 
 222   0.0000       1.825766        49.6816 
 223   0.0000       1.833473        49.8913 
 224   0.0000       1.840955        50.0949 
 225   0.0000       1.858471        50.5716 
 226   0.0000       1.885854        51.3167 
 227   0.0000       1.896368        51.6028 
 228   0.0000       1.902728        51.7759 
 229   0.0000       1.937776        52.7296 
 230   0.0000       1.950450        53.0744 
 231   0.0000       1.957450        53.2649 
 232   0.0000       1.978923        53.8492 
 233   0.0000       1.992961        54.2312 
 234   0.0000       2.007323        54.6220 
 235   0.0000       2.011993        54.7491 
 236   0.0000       2.021546        55.0091 
 237   0.0000       2.022797        55.0431 
 238   0.0000       2.030705        55.2583 
 239   0.0000       2.045132        55.6509 
 240   0.0000       2.047024        55.7024 
 241   0.0000       2.053573        55.8806 
 242   0.0000       2.061693        56.1015 
 243   0.0000       2.067726        56.2657 
 244   0.0000       2.074432        56.4482 
 245   0.0000       2.085026        56.7364 
 246   0.0000       2.091063        56.9007 
 247   0.0000       2.096082        57.0373 
 248   0.0000       2.107086        57.3367 
 249   0.0000       2.114254        57.5318 
 250   0.0000       2.125883        57.8482 
 251   0.0000       2.129957        57.9591 
 252   0.0000       2.139314        58.2137 
 253   0.0000       2.140724        58.2521 
 254   0.0000       2.150473        58.5173 
 255   0.0000       2.158430        58.7339 
 256   0.0000       2.160656        58.7944 
 257   0.0000       2.172074        59.1051 
 258   0.0000       2.182691        59.3940 
 259   0.0000       2.187272        59.5187 
 260   0.0000       2.192752        59.6678 
 261   0.0000       2.203681        59.9652 
 262   0.0000       2.207344        60.0649 
 263   0.0000       2.223557        60.5061 
 264   0.0000       2.230878        60.7053 
 265   0.0000       2.236334        60.8537 
 266   0.0000       2.246824        61.1392 
 267   0.0000       2.250696        61.2445 
 268   0.0000       2.267259        61.6952 
 269   0.0000       2.271579        61.8128 
 270   0.0000       2.279622        62.0317 
 271   0.0000       2.291122        62.3446 
 272   0.0000       2.296092        62.4798 
 273   0.0000       2.303859        62.6912 
 274   0.0000       2.312621        62.9296 
 275   0.0000       2.326287        63.3015 
 276   0.0000       2.334334        63.5205 
 277   0.0000       2.344836        63.8062 
 278   0.0000       2.360300        64.2270 
 279   0.0000       2.380781        64.7844 
 280   0.0000       2.390347        65.0446 
 281   0.0000       2.429491        66.1098 
 282   0.0000       2.445140        66.5356 
 283   0.0000       2.454636        66.7940 
 284   0.0000       2.461789        66.9887 
 285   0.0000       2.470068        67.2140 
 286   0.0000       2.487551        67.6897 
 287   0.0000       2.497240        67.9533 
 288   0.0000       2.510373        68.3107 
 289   0.0000       2.523822        68.6767 
 290   0.0000       2.539715        69.1091 
 291   0.0000       2.563221        69.7488 
 292   0.0000       2.598001        70.6952 
 293   0.0000       2.601523        70.7910 
 294   0.0000       2.617750        71.2326 
 295   0.0000       2.640314        71.8466 
 296   0.0000       2.654482        72.2321 
 297   0.0000       2.680662        72.9445 
 298   0.0000       2.693281        73.2879 
 299   0.0000       2.709201        73.7211 
 300   0.0000       2.728657        74.2505 
 301   0.0000       2.736587        74.4663 
 302   0.0000       2.741344        74.5958 
 303   0.0000       2.752848        74.9088 
 304   0.0000       2.760024        75.1041 
 305   0.0000       2.766407        75.2778 
 306   0.0000       2.774355        75.4940 
 307   0.0000       2.790865        75.9433 
 308   0.0000       2.796802        76.1048 
 309   0.0000       2.805690        76.3467 
 310   0.0000       2.827193        76.9318 
 311   0.0000       2.851991        77.6066 
 312   0.0000       2.859178        77.8022 
 313   0.0000       2.884862        78.5011 
 314   0.0000       2.889030        78.6145 
 315   0.0000       2.892766        78.7162 
 316   0.0000       2.913282        79.2744 
 317   0.0000       2.918683        79.4214 
 318   0.0000       2.932780        79.8050 
 319   0.0000       2.949732        80.2663 
 320   0.0000       2.962276        80.6076 
 321   0.0000       2.994472        81.4837 
 322   0.0000       3.004653        81.7608 
 323   0.0000       3.014866        82.0387 
 324   0.0000       3.041148        82.7538 
 325   0.0000       3.064011        83.3760 
 326   0.0000       3.070927        83.5642 
 327   0.0000       3.073680        83.6391 
 328   0.0000       3.079584        83.7998 
 329   0.0000       3.086080        83.9765 
 330   0.0000       3.151236        85.7495 
 331   0.0000       3.159515        85.9748 
 332   0.0000       3.165915        86.1489 
 333   0.0000       3.198105        87.0248 
 334   0.0000       3.200780        87.0976 
 335   0.0000       3.213681        87.4487 
 336   0.0000       3.228695        87.8573 
 337   0.0000       3.252144        88.4953 
 338   0.0000       3.263300        88.7989 
 339   0.0000       3.286663        89.4346 
 340   0.0000       3.304615        89.9231 
 341   0.0000       3.310324        90.0785 
 342   0.0000       3.314721        90.1982 
 343   0.0000       3.319429        90.3262 
 344   0.0000       3.330587        90.6299 
 345   0.0000       3.335533        90.7645 
 346   0.0000       3.359980        91.4297 
 347   0.0000       3.378197        91.9254 
 348   0.0000       3.422225        93.1235 
 349   0.0000       3.427552        93.2684 
 350   0.0000       3.446395        93.7812 
 351   0.0000       3.463426        94.2446 
 352   0.0000       3.471829        94.4733 
 353   0.0000       3.477968        94.6403 
 354   0.0000       3.507793        95.4519 
 355   0.0000       3.553013        96.6824 
 356   0.0000       3.606903        98.1488 
 357   0.0000       3.620643        98.5227 
 358   0.0000       3.732804       101.5748 
 359   0.0000       3.778969       102.8310 
 360   0.0000       3.998610       108.8077 
 361   0.0000       4.044325       110.0517 

                    ********************************
                    * MULLIKEN POPULATION ANALYSIS *
                    ********************************

-----------------------
MULLIKEN ATOMIC CHARGES
-----------------------
   0 C :    0.049512
   1 C :   -0.199088
   2 C :    0.093111
   3 C :    0.064530
   4 C :    0.186117
   5 O :   -0.378077
   6 C :    0.067068
   7 C :   -0.204245
   8 C :    0.085667
   9 C :    0.056857
  10 N :   -0.691922
  11 C :    0.372096
  12 C :   -0.291519
  13 C :    0.052414
  14 C :   -0.110689
  15 C :    0.148932
  16 N :   -0.366514
  17 C :    0.174136
  18 H :    0.035622
  19 H :    0.028989
  20 H :    0.035385
  21 H :    0.021560
  22 H :    0.039142
  23 H :    0.030900
  24 H :    0.059910
  25 H :    0.054186
  26 H :    0.048071
  27 H :    0.057464
  28 H :    0.036293
  29 H :    0.053760
  30 H :    0.020383
  31 H :    0.030955
  32 H :    0.035660
  33 H :    0.035209
  34 H :    0.016825
  35 H :    0.058104
  36 H :    0.044310
  37 H :    0.047621
  38 H :    0.052470
  39 H :    0.048796
Sum of atomic charges:   -0.0000000

--------------------------------
MULLIKEN REDUCED ORBITAL CHARGES
--------------------------------
  0 C s       :     3.018909  s :     3.018909
      pz      :     0.942206  p :     2.894955
      px      :     1.001936
      py      :     0.950812
      dz2     :     0.010220  d :     0.036625
      dxz     :     0.001385
      dyz     :     0.009709
      dx2y2   :     0.003752
      dxy     :     0.011559
  1 C s       :     3.251395  s :     3.251395
      pz      :     1.032536  p :     2.871273
      px      :     0.951331
      py      :     0.887406
      dz2     :     0.015768  d :     0.076421
      dxz     :     0.008341
      dyz     :     0.022224
      dx2y2   :     0.014278
      dxy     :     0.015810
  2 C s       :     3.002371  s :     3.002371
      pz      :     0.921367  p :     2.867651
      px      :     0.984076
      py      :     0.962208
      dz2     :     0.009371  d :     0.036866
      dxz     :     0.002718
      dyz     :     0.010603
      dx2y2   :     0.005419
      dxy     :     0.008756
  3 C s       :     3.001021  s :     3.001021
      pz      :     1.016314  p :     2.892426
      px      :     0.917711
      py      :     0.958401
      dz2     :     0.007556  d :     0.042023
      dxz     :     0.007356
      dyz     :     0.008575
      dx2y2   :     0.012356
      dxy     :     0.006181
  4 C s       :     3.135732  s :     3.135732
      pz      :     0.812901  p :     2.566332
      px      :     0.751271
      py      :     1.002160
      dz2     :     0.024181  d :     0.111819
      dxz     :     0.016732
      dyz     :     0.031047
      dx2y2   :     0.018472
      dxy     :     0.021388
  5 O s       :     3.791940  s :     3.791940
      pz      :     1.356927  p :     4.566365
      px      :     1.357104
      py      :     1.852333
      dz2     :     0.006312  d :     0.019773
      dxz     :     0.006604
      dyz     :     0.002207
      dx2y2   :     0.002976
      dxy     :     0.001674
  6 C s       :     3.004628  s :     3.004628
      pz      :     1.001658  p :     2.886032
      px      :     0.906656
      py      :     0.977718
      dz2     :     0.008975  d :     0.042271
      dxz     :     0.006801
      dyz     :     0.007841
      dx2y2   :     0.010276
      dxy     :     0.008378
  7 C s       :     3.254191  s :     3.254191
      pz      :     1.042002  p :     2.873120
      px      :     0.979520
      py      :     0.851598
      dz2     :     0.017972  d :     0.076933
      dxz     :     0.009008
      dyz     :     0.019799
      dx2y2   :     0.018814
      dxy     :     0.011341
  8 C s       :     2.998465  s :     2.998465
      pz      :     0.896470  p :     2.879415
      px      :     1.007556
      py      :     0.975389
      dz2     :     0.009663  d :     0.036453
      dxz     :     0.004372
      dyz     :     0.008644
      dx2y2   :     0.009034
      dxy     :     0.004739
  9 C s       :     3.004998  s :     3.004998
      pz      :     0.950357  p :     2.901575
      px      :     0.997419
      py      :     0.953798
      dz2     :     0.011165  d :     0.036571
      dxz     :     0.002924
      dyz     :     0.006799
      dx2y2   :     0.009581
      dxy     :     0.006101
 10 N s       :     3.512289  s :     3.512289
      pz      :     1.763811  p :     4.155326
      px      :     1.242258
      py      :     1.149258
      dz2     :     0.002310  d :     0.024307
      dxz     :     0.002677
      dyz     :     0.003386
      dx2y2   :     0.008144
      dxy     :     0.007789
 11 C s       :     2.910625  s :     2.910625
      pz      :     0.919501  p :     2.656261
      px      :     0.726722
      py      :     1.010038
      dz2     :     0.013583  d :     0.061018
      dxz     :     0.016802
      dyz     :     0.005820
      dx2y2   :     0.017990
      dxy     :     0.006823
 12 C s       :     3.112684  s :     3.112684
      pz      :     1.044185  p :     3.128142
      px      :     1.045913
      py      :     1.038044
      dz2     :     0.012329  d :     0.050693
      dxz     :     0.013106
      dyz     :     0.008828
      dx2y2   :     0.007548
      dxy     :     0.008882
 13 C s       :     3.115250  s :     3.115250
      pz      :     0.923739  p :     2.787797
      px      :     0.929787
      py      :     0.934271
      dz2     :     0.010150  d :     0.044539
      dxz     :     0.010909
      dyz     :     0.006744
      dx2y2   :     0.008586
      dxy     :     0.008150
 14 C s       :     3.147527  s :     3.147527
      pz      :     0.955094  p :     2.920801
      px      :     0.967676
      py      :     0.998032
      dz2     :     0.011395  d :     0.042362
      dxz     :     0.010994
      dyz     :     0.008023
      dx2y2   :     0.005359
      dxy     :     0.006591
 15 C s       :     3.088022  s :     3.088022
      pz      :     0.889409  p :     2.698958
      px      :     0.915642
      py      :     0.893907
      dz2     :     0.015247  d :     0.064087
      dxz     :     0.016040
      dyz     :     0.012739
      dx2y2   :     0.009803
      dxy     :     0.010257
 16 N s       :     3.566521  s :     3.566521
      pz      :     1.540547  p :     3.767069
      px      :     1.074333
      py      :     1.152189
      dz2     :     0.004111  d :     0.032924
      dxz     :     0.011499
      dyz     :     0.006695
      dx2y2   :     0.005500
      dxy     :     0.005119
 17 C s       :     3.105498  s :     3.105498
      pz      :     0.874442  p :     2.657767
      px      :     0.872451
      py      :     0.910874
      dz2     :     0.015652  d :     0.062600
      dxz     :     0.017849
      dyz     :     0.010190
      dx2y2   :     0.007941
      dxy     :     0.010967
 18 H s       :     0.939252  s :     0.939252
      pz      :     0.003599  p :     0.025126
      px      :     0.010730
      py      :     0.010797
 19 H s       :     0.945676  s :     0.945676
      pz      :     0.003375  p :     0.025335
      px      :     0.014618
      py      :     0.007341
 20 H s       :     0.940048  s :     0.940048
      pz      :     0.014752  p :     0.024567
      px      :     0.004058
      py      :     0.005757
 21 H s       :     0.953473  s :     0.953473
      pz      :     0.004029  p :     0.024967
      px      :     0.008471
      py      :     0.012466
 22 H s       :     0.935669  s :     0.935669
      pz      :     0.011930  p :     0.025189
      px      :     0.003972
      py      :     0.009287
 23 H s       :     0.944005  s :     0.944005
      pz      :     0.003253  p :     0.025096
      px      :     0.015863
      py      :     0.005980
 24 H s       :     0.915973  s :     0.915973
      pz      :     0.007881  p :     0.024117
      px      :     0.006417
      py      :     0.009820
 25 H s       :     0.920728  s :     0.920728
      pz      :     0.015957  p :     0.025086
      px      :     0.005703
      py      :     0.003426
 26 H s       :     0.927222  s :     0.927222
      pz      :     0.016901  p :     0.024707
      px      :     0.004469
      py      :     0.003338
 27 H s       :     0.918603  s :     0.918603
      pz      :     0.006046  p :     0.023934
      px      :     0.004122
      py      :     0.013767
 28 H s       :     0.938518  s :     0.938518
      pz      :     0.009908  p :     0.025189
      px      :     0.005227
      py      :     0.010054
 29 H s       :     0.920474  s :     0.920474
      pz      :     0.003235  p :     0.025767
      px      :     0.018078
      py      :     0.004454
 30 H s       :     0.954585  s :     0.954585
      pz      :     0.004236  p :     0.025032
      px      :     0.006197
      py      :     0.014600
 31 H s       :     0.944376  s :     0.944376
      pz      :     0.016080  p :     0.024669
      px      :     0.004319
      py      :     0.004270
 32 H s       :     0.938801  s :     0.938801
      pz      :     0.003724  p :     0.025539
      px      :     0.017736
      py      :     0.004078
 33 H s       :     0.939601  s :     0.939601
      pz      :     0.003981  p :     0.025191
      px      :     0.006319
      py      :     0.014891
 34 H s       :     0.959743  s :     0.959743
      pz      :     0.015452  p :     0.023432
      px      :     0.002055
      py      :     0.005925
 35 H s       :     0.916123  s :     0.916123
      pz      :     0.004532  p :     0.025773
      px      :     0.003684
      py      :     0.017557
 36 H s       :     0.930274  s :     0.930274
      pz      :     0.017574  p :     0.025416
      px      :     0.002980
      py      :     0.004862
 37 H s       :     0.926606  s :     0.926606
      pz      :     0.005414  p :     0.025774
      px      :     0.010824
      py      :     0.009535
 38 H s       :     0.923118  s :     0.923118
      pz      :     0.007961  p :     0.024412
      px      :     0.012721
      py      :     0.003730
 39 H s       :     0.926420  s :     0.926420
      pz      :     0.007082  p :     0.024784
      px      :     0.008599
      py      :     0.009103


                     *******************************
                     * LOEWDIN POPULATION ANALYSIS *
                     *******************************

----------------------
LOEWDIN ATOMIC CHARGES
----------------------
   0 C :   -0.026868
   1 C :    0.035977
   2 C :   -0.029585
   3 C :   -0.025288
   4 C :    0.148965
   5 O :   -0.245063
   6 C :   -0.026999
   7 C :    0.035444
   8 C :   -0.030973
   9 C :   -0.025469
  10 N :   -0.204941
  11 C :    0.089565
  12 C :   -0.080363
  13 C :    0.016746
  14 C :   -0.064533
  15 C :    0.049918
  16 N :   -0.139182
  17 C :    0.061642
  18 H :    0.020777
  19 H :    0.010906
  20 H :    0.016427
  21 H :    0.014564
  22 H :    0.016246
  23 H :    0.011122
  24 H :    0.035181
  25 H :    0.033167
  26 H :    0.028382
  27 H :    0.033633
  28 H :    0.015049
  29 H :    0.018885
  30 H :    0.015393
  31 H :    0.014704
  32 H :    0.014839
  33 H :    0.022833
  34 H :    0.008438
  35 H :    0.029883
  36 H :    0.027401
  37 H :    0.030720
  38 H :    0.021764
  39 H :    0.020693

-------------------------------
LOEWDIN REDUCED ORBITAL CHARGES
-------------------------------
  0 C s       :     2.843749  s :     2.843749
      pz      :     1.019805  p :     3.100912
      px      :     1.050708
      py      :     1.030400
      dz2     :     0.023029  d :     0.082207
      dxz     :     0.003034
      dyz     :     0.022002
      dx2y2   :     0.008420
      dxy     :     0.025721
  1 C s       :     2.842921  s :     2.842921
      pz      :     1.039281  p :     2.965151
      px      :     0.981612
      py      :     0.944258
      dz2     :     0.031038  d :     0.155951
      dxz     :     0.015801
      dyz     :     0.046146
      dx2y2   :     0.029766
      dxy     :     0.033199
  2 C s       :     2.840792  s :     2.840792
      pz      :     1.018137  p :     3.105050
      px      :     1.045164
      py      :     1.041749
      dz2     :     0.021553  d :     0.083744
      dxz     :     0.006421
      dyz     :     0.024010
      dx2y2   :     0.012109
      dxy     :     0.019650
  3 C s       :     2.836737  s :     2.836737
      pz      :     1.048642  p :     3.092039
      px      :     1.011214
      py      :     1.032183
      dz2     :     0.017629  d :     0.096511
      dxz     :     0.016883
      dyz     :     0.019057
      dx2y2   :     0.028203
      dxy     :     0.014739
  4 C s       :     2.868467  s :     2.868467
      pz      :     0.886225  p :     2.753477
      px      :     0.815381
      py      :     1.051871
      dz2     :     0.043061  d :     0.229091
      dxz     :     0.037870
      dyz     :     0.066957
      dx2y2   :     0.035326
      dxy     :     0.045876
  5 O s       :     3.556916  s :     3.556916
      pz      :     1.420225  p :     4.657455
      px      :     1.401440
      py      :     1.835791
      dz2     :     0.007697  d :     0.030692
      dxz     :     0.012090
      dyz     :     0.003900
      dx2y2   :     0.004165
      dxy     :     0.002840
  6 C s       :     2.837309  s :     2.837309
      pz      :     1.044480  p :     3.092474
      px      :     1.012565
      py      :     1.035429
      dz2     :     0.021238  d :     0.097216
      dxz     :     0.015488
      dyz     :     0.017251
      dx2y2   :     0.024814
      dxy     :     0.018424
  7 C s       :     2.840360  s :     2.840360
      pz      :     1.040574  p :     2.966407
      px      :     1.008213
      py      :     0.917620
      dz2     :     0.036177  d :     0.157789
      dxz     :     0.017326
      dyz     :     0.040856
      dx2y2   :     0.039496
      dxy     :     0.023934
  8 C s       :     2.839006  s :     2.839006
      pz      :     1.006384  p :     3.109377
      px      :     1.055025
      py      :     1.047968
      dz2     :     0.022188  d :     0.082590
      dxz     :     0.010245
      dyz     :     0.019661
      dx2y2   :     0.020050
      dxy     :     0.010447
  9 C s       :     2.838497  s :     2.838497
      pz      :     1.024945  p :     3.104727
      px      :     1.049998
      py      :     1.029783
      dz2     :     0.025125  d :     0.082246
      dxz     :     0.006582
      dyz     :     0.015499
      dx2y2   :     0.021313
      dxy     :     0.013727
 10 N s       :     3.092552  s :     3.092552
      pz      :     1.694046  p :     4.061625
      px      :     1.219569
      py      :     1.148010
      dz2     :     0.003965  d :     0.050763
      dxz     :     0.005354
      dyz     :     0.007278
      dx2y2   :     0.017442
      dxy     :     0.016725
 11 C s       :     2.810188  s :     2.810188
      pz      :     1.005199  p :     2.964567
      px      :     0.901884
      py      :     1.057484
      dz2     :     0.030552  d :     0.135679
      dxz     :     0.036794
      dyz     :     0.013067
      dx2y2   :     0.039964
      dxy     :     0.015302
 12 C s       :     2.857956  s :     2.857956
      pz      :     1.067595  p :     3.110519
      px      :     1.034373
      py      :     1.008551
      dz2     :     0.028204  d :     0.111887
      dxz     :     0.030582
      dyz     :     0.020032
      dx2y2   :     0.014927
      dxy     :     0.018143
 13 C s       :     2.855048  s :     2.855048
      pz      :     1.030426  p :     3.027788
      px      :     1.032456
      py      :     0.964906
      dz2     :     0.024509  d :     0.100418
      dxz     :     0.025138
      dyz     :     0.014487
      dx2y2   :     0.018114
      dxy     :     0.018170
 14 C s       :     2.854420  s :     2.854420
      pz      :     1.059909  p :     3.112513
      px      :     1.036409
      py      :     1.016195
      dz2     :     0.026690  d :     0.097600
      dxz     :     0.027376
      dyz     :     0.018274
      dx2y2   :     0.010458
      dxy     :     0.014803
 15 C s       :     2.852145  s :     2.852145
      pz      :     1.037953  p :     2.959284
      px      :     0.981596
      py      :     0.939735
      dz2     :     0.033572  d :     0.138653
      dxz     :     0.036565
      dyz     :     0.028888
      dx2y2   :     0.018882
      dxy     :     0.020746
 16 N s       :     3.236889  s :     3.236889
      pz      :     1.535695  p :     3.842499
      px      :     1.138746
      py      :     1.168059
      dz2     :     0.006697  d :     0.059793
      dxz     :     0.020694
      dyz     :     0.010178
      dx2y2   :     0.010983
      dxy     :     0.011242
 17 C s       :     2.851473  s :     2.851473
      pz      :     1.030795  p :     2.950102
      px      :     0.969558
      py      :     0.949750
      dz2     :     0.034806  d :     0.136783
      dxz     :     0.042922
      dyz     :     0.021783
      dx2y2   :     0.015063
      dxy     :     0.022209
 18 H s       :     0.913667  s :     0.913667
      pz      :     0.012073  p :     0.065556
      px      :     0.026187
      py      :     0.027296
 19 H s       :     0.922544  s :     0.922544
      pz      :     0.011723  p :     0.066551
      px      :     0.035013
      py      :     0.019815
 20 H s       :     0.917840  s :     0.917840
      pz      :     0.037204  p :     0.065734
      px      :     0.012351
      py      :     0.016178
 21 H s       :     0.919886  s :     0.919886
      pz      :     0.013812  p :     0.065549
      px      :     0.021278
      py      :     0.030459
 22 H s       :     0.916839  s :     0.916839
      pz      :     0.031192  p :     0.066915
      px      :     0.012271
      py      :     0.023452
 23 H s       :     0.922702  s :     0.922702
      pz      :     0.012283  p :     0.066175
      px      :     0.037688
      py      :     0.016205
 24 H s       :     0.897583  s :     0.897583
      pz      :     0.020652  p :     0.067236
      px      :     0.018974
      py      :     0.027610
 25 H s       :     0.898837  s :     0.898837
      pz      :     0.037412  p :     0.067997
      px      :     0.017604
      py      :     0.012980
 26 H s       :     0.903640  s :     0.903640
      pz      :     0.039521  p :     0.067978
      px      :     0.016078
      py      :     0.012378
 27 H s       :     0.899297  s :     0.899297
      pz      :     0.016887  p :     0.067070
      px      :     0.014611
      py      :     0.035571
 28 H s       :     0.917968  s :     0.917968
      pz      :     0.027008  p :     0.066983
      px      :     0.015145
      py      :     0.024830
 29 H s       :     0.912779  s :     0.912779
      pz      :     0.012687  p :     0.068336
      px      :     0.042647
      py      :     0.013001
 30 H s       :     0.918918  s :     0.918918
      pz      :     0.014444  p :     0.065689
      px      :     0.016719
      py      :     0.034525
 31 H s       :     0.919704  s :     0.919704
      pz      :     0.039212  p :     0.065592
      px      :     0.013063
      py      :     0.013317
 32 H s       :     0.917339  s :     0.917339
      pz      :     0.012217  p :     0.067822
      px      :     0.042259
      py      :     0.013347
 33 H s       :     0.911650  s :     0.911650
      pz      :     0.012499  p :     0.065517
      px      :     0.017045
      py      :     0.035972
 34 H s       :     0.926705  s :     0.926705
      pz      :     0.038652  p :     0.064857
      px      :     0.009299
      py      :     0.016906
 35 H s       :     0.901691  s :     0.901691
      pz      :     0.013736  p :     0.068426
      px      :     0.011745
      py      :     0.042945
 36 H s       :     0.904667  s :     0.904667
      pz      :     0.041656  p :     0.067932
      px      :     0.011206
      py      :     0.015070
 37 H s       :     0.899433  s :     0.899433
      pz      :     0.016889  p :     0.069847
      px      :     0.027577
      py      :     0.025380
 38 H s       :     0.911791  s :     0.911791
      pz      :     0.021440  p :     0.066445
      px      :     0.032078
      py      :     0.012927
 39 H s       :     0.910882  s :     0.910882
      pz      :     0.019638  p :     0.068424
      px      :     0.023678
      py      :     0.025108


                      *****************************
                      * MAYER POPULATION ANALYSIS *
                      *****************************

  NA   - Mulliken gross atomic population
  ZA   - Total nuclear charge
  QA   - Mulliken gross atomic charge
  VA   - Mayer's total valence
  BVA  - Mayer's bonded valence
  FA   - Mayer's free valence

  ATOM       NA         ZA         QA         VA         BVA        FA
  0 C      5.9505     6.0000     0.0495     3.8673     3.8673    -0.0000
  1 C      6.1991     6.0000    -0.1991     3.9019     3.9019    -0.0000
  2 C      5.9069     6.0000     0.0931     3.8123     3.8123    -0.0000
  3 C      5.9355     6.0000     0.0645     3.7266     3.7266    -0.0000
  4 C      5.8139     6.0000     0.1861     4.0238     4.0238    -0.0000
  5 O      8.3781     8.0000    -0.3781     2.0749     2.0749    -0.0000
  6 C      5.9329     6.0000     0.0671     3.7178     3.7178    -0.0000
  7 C      6.2042     6.0000    -0.2042     3.8951     3.8951    -0.0000
  8 C      5.9143     6.0000     0.0857     3.8077     3.8077    -0.0000
  9 C      5.9431     6.0000     0.0569     3.8811     3.8811    -0.0000
 10 N      7.6919     7.0000    -0.6919     2.6214     2.6214    -0.0000
 11 C      5.6279     6.0000     0.3721     3.8070     3.8070     0.0000
 12 C      6.2915     6.0000    -0.2915     3.8064     3.8064    -0.0000
 13 C      5.9476     6.0000     0.0524     3.9045     3.9045    -0.0000
 14 C      6.1107     6.0000    -0.1107     3.8846     3.8846    -0.0000
 15 C      5.8511     6.0000     0.1489     3.9231     3.9231    -0.0000
 16 N      7.3665     7.0000    -0.3665     3.0169     3.0169    -0.0000
 17 C      5.8259     6.0000     0.1741     3.9288     3.9288     0.0000
 18 H      0.9644     1.0000     0.0356     0.9847     0.9847    -0.0000
 19 H      0.9710     1.0000     0.0290     0.9862     0.9862     0.0000
 20 H      0.9646     1.0000     0.0354     0.9873     0.9873    -0.0000
 21 H      0.9784     1.0000     0.0216     0.9849     0.9849     0.0000
 22 H      0.9609     1.0000     0.0391     0.9940     0.9940    -0.0000
 23 H      0.9691     1.0000     0.0309     0.9884     0.9884    -0.0000
 24 H      0.9401     1.0000     0.0599     1.0049     1.0049    -0.0000
 25 H      0.9458     1.0000     0.0542     0.9883     0.9883    -0.0000
 26 H      0.9519     1.0000     0.0481     0.9892     0.9892    -0.0000
 27 H      0.9425     1.0000     0.0575     1.0033     1.0033    -0.0000
 28 H      0.9637     1.0000     0.0363     0.9977     0.9977    -0.0000
 29 H      0.9462     1.0000     0.0538     0.9868     0.9868     0.0000
 30 H      0.9796     1.0000     0.0204     0.9860     0.9860    -0.0000
 31 H      0.9690     1.0000     0.0310     0.9850     0.9850    -0.0000
 32 H      0.9643     1.0000     0.0357     0.9929     0.9929    -0.0000
 33 H      0.9648     1.0000     0.0352     0.9864     0.9864    -0.0000
 34 H      0.9832     1.0000     0.0168     0.9888     0.9888     0.0000
 35 H      0.9419     1.0000     0.0581     0.9900     0.9900    -0.0000
 36 H      0.9557     1.0000     0.0443     0.9938     0.9938    -0.0000
 37 H      0.9524     1.0000     0.0476     0.9882     0.9882    -0.0000
 38 H      0.9475     1.0000     0.0525     0.9896     0.9896    -0.0000
 39 H      0.9512     1.0000     0.0488     1.0184     1.0184     0.0000

  Mayer bond orders larger than 0.100000
B(  0-C ,  1-C ) :   1.0232 B(  0-C , 18-H ) :   0.9778 B(  0-C , 19-H ) :   0.9831 
B(  0-C , 20-H ) :   0.9789 B(  1-C ,  2-C ) :   0.9835 B(  1-C ,  3-C ) :   0.9917 
B(  1-C , 10-N ) :   0.8820 B(  2-C , 21-H ) :   0.9773 B(  2-C , 22-H ) :   0.9819 
B(  2-C , 23-H ) :   0.9779 B(  3-C ,  4-C ) :   0.9803 B(  3-C , 24-H ) :   0.9585 
B(  3-C , 25-H ) :   0.9610 B(  4-C ,  5-O ) :   2.0680 B(  4-C ,  6-C ) :   0.9785 
B(  6-C ,  7-C ) :   1.0024 B(  6-C , 26-H ) :   0.9606 B(  6-C , 27-H ) :   0.9591 
B(  7-C ,  8-C ) :   0.9783 B(  7-C ,  9-C ) :   1.0315 B(  7-C , 10-N ) :   0.8630 
B(  8-C , 28-H ) :   0.9800 B(  8-C , 29-H ) :   0.9814 B(  8-C , 30-H ) :   0.9778 
B(  9-C , 31-H ) :   0.9798 B(  9-C , 32-H ) :   0.9800 B(  9-C , 33-H ) :   0.9765 
B( 10-N , 11-C ) :   0.9457 B( 11-C , 12-C ) :   0.9627 B( 11-C , 34-H ) :   0.9829 
B( 11-C , 35-H ) :   0.9721 B( 12-C , 13-C ) :   1.4429 B( 12-C , 17-C ) :   1.3866 
B( 13-C , 14-C ) :   1.4305 B( 13-C , 36-H ) :   0.9919 B( 14-C , 15-C ) :   1.4084 
B( 14-C , 37-H ) :   0.9911 B( 15-C , 16-N ) :   1.4610 B( 15-C , 38-H ) :   1.0000 
B( 16-N , 17-C ) :   1.4713 B( 17-C , 39-H ) :   1.0115 

-------
TIMINGS
-------

Total SCF time: 0 days 0 hours 0 min 22 sec 

Total time                  ....      22.644 sec
Sum of individual times     ....      22.345 sec  ( 98.7%)

Fock matrix formation       ....      21.500 sec  ( 94.9%)
Diagonalization             ....       0.236 sec  (  1.0%)
Density matrix formation    ....       0.025 sec  (  0.1%)
Population analysis         ....       0.031 sec  (  0.1%)
Initial guess               ....       0.128 sec  (  0.6%)
Orbital Transformation      ....       0.000 sec  (  0.0%)
Orbital Orthonormalization  ....       0.000 sec  (  0.0%)
DIIS solution               ....       0.130 sec  (  0.6%)
SOSCF solution              ....       0.141 sec  (  0.6%)

Maximum memory used throughout the entire SCF-calculation: 239.8 MB

-------------------------   --------------------
FINAL SINGLE POINT ENERGY      -763.984954744362
-------------------------   --------------------


                            ***************************************
                            *     ORCA property calculations      *
                            ***************************************

                                    ---------------------
                                    Active property flags
                                    ---------------------
   (+) Dipole Moment


------------------------------------------------------------------------------
                       ORCA ELECTRIC PROPERTIES CALCULATION
------------------------------------------------------------------------------

Dipole Moment Calculation                       ... on
Quadrupole Moment Calculation                   ... off
Polarizability Calculation                      ... off
GBWName                                         ... ./ZINC000000000157/ZINC000000000157.gbw
Electron density                                ... ./ZINC000000000157/ZINC000000000157.scfp
The origin for moment calculation is the CENTER OF MASS  = ( 0.155513, -0.096860  0.245411)

-------------
DIPOLE MOMENT
-------------
                                X             Y             Z
Electronic contribution:      4.98508      -2.09695       4.31260
Nuclear contribution   :     -4.27931       2.07427      -6.17511
                        -----------------------------------------
Total Dipole Moment    :      0.70577      -0.02268      -1.86252
                        -----------------------------------------
Magnitude (a.u.)       :      1.99188
Magnitude (Debye)      :      5.06296



--------------------
Rotational spectrum 
--------------------
 
Rotational constants in cm-1:     0.025982     0.009279     0.008561 
Rotational constants in MHz :   778.912147   278.187467   256.666787 

 Dipole components along the rotational axes: 
x,y,z [a.u.] :    -0.631097     0.193828    -1.879293 
x,y,z [Debye]:    -1.604122     0.492673    -4.776782 

 

Timings for individual modules:

Sum of individual times         ...       23.284 sec (=   0.388 min)
GTO integral calculation        ...        0.412 sec (=   0.007 min)   1.8 %
SCF iterations                  ...       22.872 sec (=   0.381 min)  98.2 %
                             ****ORCA TERMINATED NORMALLY****
TOTAL RUN TIME: 0 days 0 hours 0 minutes 23 seconds 659 msec
