
                                 *****************
                                 * O   R   C   A *
                                 *****************

                                            #,                                       
                                            ###                                      
                                            ####                                     
                                            #####                                    
                                            ######                                   
                                           ########,                                 
                                     ,,################,,,,,                         
                               ,,#################################,,                 
                          ,,##########################################,,             
                       ,#########################################, ''#####,          
                    ,#############################################,,   '####,        
                  ,##################################################,,,,####,       
                ,###########''''           ''''###############################       
              ,#####''   ,,,,##########,,,,          '''####'''          '####       
            ,##' ,,,,###########################,,,                        '##       
           ' ,,###''''                  '''############,,,                           
         ,,##''                                '''############,,,,        ,,,,,,###''
      ,#''                                            '''#######################'''  
     '                                                          ''''####''''         
             ,#######,   #######,   ,#######,      ##                                
            ,#'     '#,  ##    ##  ,#'     '#,    #''#        ######   ,####,        
            ##       ##  ##   ,#'  ##            #'  '#       #        #'  '#        
            ##       ##  #######   ##           ,######,      #####,   #    #        
            '#,     ,#'  ##    ##  '#,     ,#' ,#      #,         ##   #,  ,#        
             '#######'   ##     ##  '#######'  #'      '#     #####' # '####'        



                  #######################################################
                  #                        -***-                        #
                  #          Department of theory and spectroscopy      #
                  #    Directorship and core code : Frank Neese         #
                  #        Max Planck Institute fuer Kohlenforschung    #
                  #                Kaiser Wilhelm Platz 1               #
                  #                 D-45470 Muelheim/Ruhr               #
                  #                      Germany                        #
                  #                                                     #
                  #                  All rights reserved                #
                  #                        -***-                        #
                  #######################################################


                         Program Version 5.0.3 -  RELEASE  -


 With contributions from (in alphabetic order):
   Daniel Aravena         : Magnetic Suceptibility
   Michael Atanasov       : Ab Initio Ligand Field Theory (pilot matlab implementation)
   Alexander A. Auer      : GIAO ZORA, VPT2 properties, NMR spectrum
   Ute Becker             : Parallelization
   Giovanni Bistoni       : ED, misc. LED, open-shell LED, HFLD
   Martin Brehm           : Molecular dynamics
   Dmytro Bykov           : SCF Hessian
   Vijay G. Chilkuri      : MRCI spin determinant printing, contributions to CSF-ICE
   Dipayan Datta          : RHF DLPNO-CCSD density
   Achintya Kumar Dutta   : EOM-CC, STEOM-CC
   Dmitry Ganyushin       : Spin-Orbit,Spin-Spin,Magnetic field MRCI
   Miquel Garcia          : C-PCM and meta-GGA Hessian, CC/C-PCM, Gaussian charge scheme
   Yang Guo               : DLPNO-NEVPT2, F12-NEVPT2, CIM, IAO-localization
   Andreas Hansen         : Spin unrestricted coupled pair/coupled cluster methods
   Benjamin Helmich-Paris : MC-RPA, TRAH-SCF, COSX integrals
   Lee Huntington         : MR-EOM, pCC
   Robert Izsak           : Overlap fitted RIJCOSX, COSX-SCS-MP3, EOM
   Marcus Kettner         : VPT2
   Christian Kollmar      : KDIIS, OOCD, Brueckner-CCSD(T), CCSD density, CASPT2, CASPT2-K
   Simone Kossmann        : Meta GGA functionals, TD-DFT gradient, OOMP2, MP2 Hessian
   Martin Krupicka        : Initial AUTO-CI
   Lucas Lang             : DCDCAS
   Marvin Lechner         : AUTO-CI (C++ implementation), FIC-MRCC
   Dagmar Lenk            : GEPOL surface, SMD
   Dimitrios Liakos       : Extrapolation schemes; Compound Job, initial MDCI parallelization
   Dimitrios Manganas     : Further ROCIS development; embedding schemes
   Dimitrios Pantazis     : SARC Basis sets
   Anastasios Papadopoulos: AUTO-CI, single reference methods and gradients
   Taras Petrenko         : DFT Hessian,TD-DFT gradient, ASA, ECA, R-Raman, ABS, FL, XAS/XES, NRVS
   Peter Pinski           : DLPNO-MP2, DLPNO-MP2 Gradient
   Christoph Reimann      : Effective Core Potentials
   Marius Retegan         : Local ZFS, SOC
   Christoph Riplinger    : Optimizer, TS searches, QM/MM, DLPNO-CCSD(T), (RO)-DLPNO pert. Triples
   Tobias Risthaus        : Range-separated hybrids, TD-DFT gradient, RPA, STAB
   Michael Roemelt        : Original ROCIS implementation
   Masaaki Saitow         : Open-shell DLPNO-CCSD energy and density
   Barbara Sandhoefer     : DKH picture change effects
   Avijit Sen             : IP-ROCIS
   Kantharuban Sivalingam : CASSCF convergence, NEVPT2, FIC-MRCI
   Bernardo de Souza      : ESD, SOC TD-DFT
   Georgi Stoychev        : AutoAux, RI-MP2 NMR, DLPNO-MP2 response
   Willem Van den Heuvel  : Paramagnetic NMR
   Boris Wezisla          : Elementary symmetry handling
   Frank Wennmohs         : Technical directorship


 We gratefully acknowledge several colleagues who have allowed us to
 interface, adapt or use parts of their codes:
   Stefan Grimme, W. Hujo, H. Kruse, P. Pracht,  : VdW corrections, initial TS optimization,
                  C. Bannwarth, S. Ehlert          DFT functionals, gCP, sTDA/sTD-DF
   Ed Valeev, F. Pavosevic, A. Kumar             : LibInt (2-el integral package), F12 methods
   Garnet Chan, S. Sharma, J. Yang, R. Olivares  : DMRG
   Ulf Ekstrom                                   : XCFun DFT Library
   Mihaly Kallay                                 : mrcc  (arbitrary order and MRCC methods)
   Jiri Pittner, Ondrej Demel                    : Mk-CCSD
   Frank Weinhold                                : gennbo (NPA and NBO analysis)
   Christopher J. Cramer and Donald G. Truhlar   : smd solvation model
   Lars Goerigk                                  : TD-DFT with DH, B97 family of functionals
   V. Asgeirsson, H. Jonsson                     : NEB implementation
   FAccTs GmbH                                   : IRC, NEB, NEB-TS, DLPNO-Multilevel, CI-OPT
                                                   MM, QMMM, 2- and 3-layer-ONIOM, Crystal-QMMM,
                                                   LR-CPCM, SF, NACMEs, symmetry and pop. for TD-DFT,
                                                   nearIR, NL-DFT gradient (VV10), updates on ESD,
                                                   ML-optimized integration grids
   S Lehtola, MJT Oliveira, MAL Marques          : LibXC Library
   Liviu Ungur et al                             : ANISO software


 Your calculation uses the libint2 library for the computation of 2-el integrals
 For citations please refer to: http://libint.valeyev.net

 Your ORCA version has been built with support for libXC version: 5.1.0
 For citations please refer to: https://tddft.org/programs/libxc/

 This ORCA versions uses:
   CBLAS   interface :  Fast vector & matrix operations
   LAPACKE interface :  Fast linear algebra routines
   SCALAPACK package :  Parallel linear algebra routines
   Shared memory     :  Shared parallel matrices
   BLAS/LAPACK       :  OpenBLAS 0.3.15  USE64BITINT DYNAMIC_ARCH NO_AFFINITY Zen SINGLE_THREADED
        Core in use  :  Zen
   Copyright (c) 2011-2014, The OpenBLAS Project


================================================================================

----- Orbital basis set information -----
Your calculation utilizes the basis: def2-SVP
   F. Weigend and R. Ahlrichs, Phys. Chem. Chem. Phys. 7, 3297 (2005).

================================================================================
                                        WARNINGS
                       Please study these warnings very carefully!
================================================================================


INFO   : the flag for use of the SHARK integral package has been found!

================================================================================
                                       INPUT FILE
================================================================================
NAME = ./ZINC000000000214/ZINC000000000214.inp
|  1> !RHF def2-SVP TightSCF PAL16 
|  2> *xyz 0 1
|  3> C -1.9049230538990478 -0.43485123595836583 -1.9910451064167916
|  4> C -2.3696414030288473 -1.056667522850406 -0.6768293905366444
|  5> N -2.5512623040232456 -0.137280719864895 0.4603173106392805
|  6> C -3.6530415540934658 0.8066377726636385 0.21925244211322856
|  7> C -4.175800747768203 1.4434916935360471 1.5031750266621953
|  8> C -1.30397678703826 0.559146730864001 0.8575607115425926
|  9> C -0.18870477334573585 -0.4340978692167487 1.2696345626302226
| 10> O -0.36892291581490366 -1.274702060889886 2.152221705938557
| 11> N 0.9914524263628731 -0.30069751152866014 0.5115994806054031
| 12> C 1.6827465852187462 0.9672298386722319 0.4904871949970712
| 13> C 1.4285734307113849 1.9105466839730185 1.5123509552863388
| 14> C 2.059691850248502 3.1574441318220834 1.5441123496837044
| 15> C 2.975601212066735 3.4910247909407617 0.5593510110004981
| 16> C 3.2680059127820265 2.5682862829410094 -0.44062336905144045
| 17> C 2.640905832948346 1.3089784287293307 -0.47310215869931943
| 18> S 3.104455397217708 0.23249302152449033 -1.7944777318896792
| 19> C 2.5812501648051636 -1.3247844265507576 -1.1262969119808395
| 20> C 3.143689747485574 -2.466305320576393 -1.7303147122538765
| 21> C 2.736145635890806 -3.7441314749560584 -1.3657871329036362
| 22> C 1.7495821406780412 -3.8882475065567106 -0.40520579599366857
| 23> C 1.186428206692951 -2.7563814146571195 0.19625661588651858
| 24> C 1.5993742921789353 -1.4465950607485083 -0.1262810346017929
| 25> H -1.833329076273844 -1.2113387416045536 -2.760166866868176
| 26> H -0.9168636466971127 0.024832629206099445 -1.8999116894786048
| 27> H -2.6082923889472975 0.3210181999737325 -2.3526959502591804
| 28> H -3.3168753004663136 -1.581461811606335 -0.8575195585511226
| 29> H -1.6710926445928043 -1.8524200966927353 -0.39644768107006784
| 30> H -4.499576437153339 0.2723958920113787 -0.23065266157473607
| 31> H -3.360223332068219 1.5924822723203063 -0.4874989791233724
| 32> H -4.434082211635553 0.6809484785182248 2.2455184582308028
| 33> H -5.081219811950385 2.0212912234839555 1.2890477504097961
| 34> H -3.4492729462219787 2.129686735320867 1.9476372756156148
| 35> H -1.4824601933518018 1.1742028261373638 1.745884358021096
| 36> H -0.9707831538044427 1.2269209642749288 0.056632808604250705
| 37> H 0.7627945951991976 1.679520416673007 2.3414367777775973
| 38> H 1.8431515492135688 3.8569249043665805 2.3482089108898077
| 39> H 3.474055715897808 4.456785182271455 0.5754515722698932
| 40> H 4.0006857970225695 2.8363130911324714 -1.2001888369297091
| 41> H 3.9002966196469058 -2.3620061279265463 -2.506036972776839
| 42> H 3.1771886677338212 -4.617627770763012 -1.8379477729082399
| 43> H 1.4105041276671757 -4.879178234278754 -0.11223564655661675
| 44> H 0.42376477450612543 -2.9498272841304494 0.9451286816200982
| 45> *
| 46> 
| 47>                          ****END OF INPUT****
================================================================================

                       ****************************
                       * Single Point Calculation *
                       ****************************

---------------------------------
CARTESIAN COORDINATES (ANGSTROEM)
---------------------------------
  C     -1.904923   -0.434851   -1.991045
  C     -2.369641   -1.056668   -0.676829
  N     -2.551262   -0.137281    0.460317
  C     -3.653042    0.806638    0.219252
  C     -4.175801    1.443492    1.503175
  C     -1.303977    0.559147    0.857561
  C     -0.188705   -0.434098    1.269635
  O     -0.368923   -1.274702    2.152222
  N      0.991452   -0.300698    0.511599
  C      1.682747    0.967230    0.490487
  C      1.428573    1.910547    1.512351
  C      2.059692    3.157444    1.544112
  C      2.975601    3.491025    0.559351
  C      3.268006    2.568286   -0.440623
  C      2.640906    1.308978   -0.473102
  S      3.104455    0.232493   -1.794478
  C      2.581250   -1.324784   -1.126297
  C      3.143690   -2.466305   -1.730315
  C      2.736146   -3.744131   -1.365787
  C      1.749582   -3.888248   -0.405206
  C      1.186428   -2.756381    0.196257
  C      1.599374   -1.446595   -0.126281
  H     -1.833329   -1.211339   -2.760167
  H     -0.916864    0.024833   -1.899912
  H     -2.608292    0.321018   -2.352696
  H     -3.316875   -1.581462   -0.857520
  H     -1.671093   -1.852420   -0.396448
  H     -4.499576    0.272396   -0.230653
  H     -3.360223    1.592482   -0.487499
  H     -4.434082    0.680948    2.245518
  H     -5.081220    2.021291    1.289048
  H     -3.449273    2.129687    1.947637
  H     -1.482460    1.174203    1.745884
  H     -0.970783    1.226921    0.056633
  H      0.762795    1.679520    2.341437
  H      1.843152    3.856925    2.348209
  H      3.474056    4.456785    0.575452
  H      4.000686    2.836313   -1.200189
  H      3.900297   -2.362006   -2.506037
  H      3.177189   -4.617628   -1.837948
  H      1.410504   -4.879178   -0.112236
  H      0.423765   -2.949827    0.945129

----------------------------
CARTESIAN COORDINATES (A.U.)
----------------------------
  NO LB      ZA    FRAG     MASS         X           Y           Z
   0 C     6.0000    0    12.011   -3.599783   -0.821750   -3.762530
   1 C     6.0000    0    12.011   -4.477973   -1.996812   -1.279022
   2 N     7.0000    0    14.007   -4.821187   -0.259423    0.869874
   3 C     6.0000    0    12.011   -6.903248    1.524324    0.414327
   4 C     6.0000    0    12.011   -7.891120    2.727804    2.840589
   5 C     6.0000    0    12.011   -2.464159    1.056634    1.620555
   6 C     6.0000    0    12.011   -0.356600   -0.820326    2.399262
   7 O     8.0000    0    15.999   -0.697163   -2.408838    4.067110
   8 N     7.0000    0    14.007    1.873574   -0.568236    0.966783
   9 C     6.0000    0    12.011    3.179930    1.827800    0.926886
  10 C     6.0000    0    12.011    2.699613    3.610410    2.857929
  11 C     6.0000    0    12.011    3.892254    5.966705    2.917949
  12 C     6.0000    0    12.011    5.623071    6.597081    1.057020
  13 C     6.0000    0    12.011    6.175636    4.853358   -0.832657
  14 C     6.0000    0    12.011    4.990589    2.473611   -0.894034
  15 S    16.0000    0    32.060    5.866570    0.439348   -3.391071
  16 C     6.0000    0    12.011    4.877856   -2.503480   -2.128393
  17 C     6.0000    0    12.011    5.940713   -4.660642   -3.269821
  18 C     6.0000    0    12.011    5.170566   -7.075383   -2.580964
  19 C     6.0000    0    12.011    3.306231   -7.347723   -0.765728
  20 C     6.0000    0    12.011    2.242024   -5.208806    0.370871
  21 C     6.0000    0    12.011    3.022379   -2.733668   -0.238637
  22 H     1.0000    0     1.008   -3.464490   -2.289098   -5.215959
  23 H     1.0000    0     1.008   -1.732621    0.046927   -3.590313
  24 H     1.0000    0     1.008   -4.928958    0.606636   -4.445951
  25 H     1.0000    0     1.008   -6.267986   -2.988530   -1.620477
  26 H     1.0000    0     1.008   -3.157907   -3.500567   -0.749178
  27 H     1.0000    0     1.008   -8.502967    0.514754   -0.435870
  28 H     1.0000    0     1.008   -6.349902    3.009355   -0.921240
  29 H     1.0000    0     1.008   -8.379201    1.286806    4.243415
  30 H     1.0000    0     1.008   -9.602114    3.819687    2.435947
  31 H     1.0000    0     1.008   -6.518181    4.024525    3.680501
  32 H     1.0000    0     1.008   -2.801444    2.218922    3.299243
  33 H     1.0000    0     1.008   -1.834514    2.318545    0.107020
  34 H     1.0000    0     1.008    1.441473    3.173834    4.424674
  35 H     1.0000    0     1.008    3.483052    7.288532    4.437472
  36 H     1.0000    0     1.008    6.565014    8.422103    1.087446
  37 H     1.0000    0     1.008    7.560201    5.359855   -2.268028
  38 H     1.0000    0     1.008    7.370492   -4.463545   -4.735724
  39 H     1.0000    0     1.008    6.004016   -8.726052   -3.473218
  40 H     1.0000    0     1.008    2.665467   -9.220311   -0.212095
  41 H     1.0000    0     1.008    0.800799   -5.574366    1.786034

--------------------------------
INTERNAL COORDINATES (ANGSTROEM)
--------------------------------
 C      0   0   0     0.000000000000     0.00000000     0.00000000
 C      1   0   0     1.526362206859     0.00000000     0.00000000
 N      2   1   0     1.473553821609   116.60226673     0.00000000
 C      3   2   1     1.470718160376   111.48668045    65.99078391
 C      4   3   2     1.525554749662   112.74851755   160.82945179
 C      3   2   1     1.482745654039   113.33562499   298.69197793
 C      6   3   2     1.549248643332   112.06751130   300.53228326
 O      7   6   3     1.232093361506   121.50947864   304.53663039
 N      7   6   3     1.408965527270   113.52650923   122.37290600
 C      9   7   6     1.444289828275   119.46513345    58.38189591
 C     10   9   7     1.413738380215   119.28488972    19.25481703
 C     11  10   9     1.397881429559   122.03470329   180.35030966
 C     12  11  10     1.385612106388   119.80379180   359.33502635
 C     13  12  11     1.391723975473   119.33491336   359.12966232
 C     10   9   7     1.401201514905   123.46769388   196.99626886
 S     15  10   9     1.766276432466   123.04412777     0.79855865
 C     16  15  10     1.773505673406   100.12973806   339.09948452
 C     17  16  15     1.408632577612   115.60905295   198.16741902
 C     18  17  16     1.389896485289   121.03059823   184.99471679
 C     19  18  17     1.384483104075   119.11814162     0.81332618
 C     20  19  18     1.400007227217   120.03678359   359.29132727
 C     17  16  15     1.406751511412   123.35112043    22.64417104
 H      1   2   3     1.095265641959   109.61570960   181.47328481
 H      1   2   3     1.093561131229   111.99840998    62.48861308
 H      1   2   3     1.094010218652   111.73718206   300.46152514
 H      2   1   3     1.097866129718   108.40398540   122.85611878
 H      2   1   3     1.095356759094   108.79514630   235.56818561
 H      4   3   2     1.097474508863   109.42773453    42.51324779
 H      4   3   2     1.096718587519   111.43785043   284.51077203
 H      5   4   3     1.095105127255   111.13955145   307.26158971
 H      5   4   3     1.095210696180   109.81467277   188.13105947
 H      5   4   3     1.093733501606   112.10418480    68.93662843
 H      6   3   2     1.095111513753   110.12171758   183.83948485
 H      6   3   2     1.094726417759   110.27494934    65.38247963
 H     11  10   9     1.088125863609   121.27016769     3.25100508
 H     12  11  10     1.087535899580   120.04066922   180.26817537
 H     13  12  11     1.086926517261   120.43204740   180.14600753
 H     14  13  12     1.088851634831   118.64591122   180.92151448
 H     18  17  16     1.088612560124   120.35911191     4.12660280
 H     19  18  17     1.086485344906   120.40675992   180.03169182
 H     20  19  18     1.087542695489   120.26004372   179.46657558
 H     21  20  19     1.086225660739   115.76210045   180.41327465

---------------------------
INTERNAL COORDINATES (A.U.)
---------------------------
 C      0   0   0     0.000000000000     0.00000000     0.00000000
 C      1   0   0     2.884406552132     0.00000000     0.00000000
 N      2   1   0     2.784613166433   116.60226673     0.00000000
 C      3   2   1     2.779254543295   111.48668045    65.99078391
 C      4   3   2     2.882880679164   112.74851755   160.82945179
 C      3   2   1     2.801983212395   113.33562499   298.69197793
 C      6   3   2     2.927655649246   112.06751130   300.53228326
 O      7   6   3     2.328319024668   121.50947864   304.53663039
 N      7   6   3     2.662558978677   113.52650923   122.37290600
 C      9   7   6     2.729312233448   119.46513345    58.38189591
 C     10   9   7     2.671578363620   119.28488972    19.25481703
 C     11  10   9     2.641613069561   122.03470329   180.35030966
 C     12  11  10     2.618427408919   119.80379180   359.33502635
 C     13  12  11     2.629977167656   119.33491336   359.12966232
 C     10   9   7     2.647887121607   123.46769388   196.99626886
 S     15  10   9     3.337778734159   123.04412777     0.79855865
 C     16  15  10     3.351440019692   100.12973806   339.09948452
 C     17  16  15     2.661929795006   115.60905295   198.16741902
 C     18  17  16     2.626523711696   121.03059823   184.99471679
 C     19  18  17     2.616293903744   119.11814162     0.81332618
 C     20  19  18     2.645630244950   120.03678359   359.29132727
 C     17  16  15     2.658375095048   123.35112043    22.64417104
 H      1   2   3     2.069752107197   109.61570960   181.47328481
 H      1   2   3     2.066531048725   111.99840998    62.48861308
 H      1   2   3     2.067379700963   111.73718206   300.46152514
 H      2   1   3     2.074666316876   108.40398540   122.85611878
 H      2   1   3     2.069924293627   108.79514630   235.56818561
 H      4   3   2     2.073926260711   109.42773453    42.51324779
 H      4   3   2     2.072497776393   111.43785043   284.51077203
 H      5   4   3     2.069448778365   111.13955145   307.26158971
 H      5   4   3     2.069648274722   109.81467277   188.13105947
 H      5   4   3     2.066856781529   112.10418480    68.93662843
 H      6   3   2     2.069460847098   110.12171758   183.83948485
 H      6   3   2     2.068733121134   110.27494934    65.38247963
 H     11  10   9     2.056259881457   121.27016769     3.25100508
 H     12  11  10     2.055145011014   120.04066922   180.26817537
 H     13  12  11     2.053993445321   120.43204740   180.14600753
 H     14  13  12     2.057631390302   118.64591122   180.92151448
 H     18  17  16     2.057179604581   120.35911191     4.12660280
 H     19  18  17     2.053159750391   120.40675992   180.03169182
 H     20  19  18     2.055157853421   120.26004372   179.46657558
 H     21  20  19     2.052669018434   115.76210045   180.41327465

---------------------
BASIS SET INFORMATION
---------------------
There are 5 groups of distinct atoms

 Group   1 Type C   : 7s4p1d contracted to 3s2p1d pattern {511/31/1}
 Group   2 Type N   : 7s4p1d contracted to 3s2p1d pattern {511/31/1}
 Group   3 Type O   : 7s4p1d contracted to 3s2p1d pattern {511/31/1}
 Group   4 Type S   : 10s7p1d contracted to 4s3p1d pattern {5311/511/1}
 Group   5 Type H   : 4s1p contracted to 2s1p pattern {31/1}

Atom   0C    basis set group =>   1
Atom   1C    basis set group =>   1
Atom   2N    basis set group =>   2
Atom   3C    basis set group =>   1
Atom   4C    basis set group =>   1
Atom   5C    basis set group =>   1
Atom   6C    basis set group =>   1
Atom   7O    basis set group =>   3
Atom   8N    basis set group =>   2
Atom   9C    basis set group =>   1
Atom  10C    basis set group =>   1
Atom  11C    basis set group =>   1
Atom  12C    basis set group =>   1
Atom  13C    basis set group =>   1
Atom  14C    basis set group =>   1
Atom  15S    basis set group =>   4
Atom  16C    basis set group =>   1
Atom  17C    basis set group =>   1
Atom  18C    basis set group =>   1
Atom  19C    basis set group =>   1
Atom  20C    basis set group =>   1
Atom  21C    basis set group =>   1
Atom  22H    basis set group =>   5
Atom  23H    basis set group =>   5
Atom  24H    basis set group =>   5
Atom  25H    basis set group =>   5
Atom  26H    basis set group =>   5
Atom  27H    basis set group =>   5
Atom  28H    basis set group =>   5
Atom  29H    basis set group =>   5
Atom  30H    basis set group =>   5
Atom  31H    basis set group =>   5
Atom  32H    basis set group =>   5
Atom  33H    basis set group =>   5
Atom  34H    basis set group =>   5
Atom  35H    basis set group =>   5
Atom  36H    basis set group =>   5
Atom  37H    basis set group =>   5
Atom  38H    basis set group =>   5
Atom  39H    basis set group =>   5
Atom  40H    basis set group =>   5
Atom  41H    basis set group =>   5


           ************************************************************
           *        Program running with 16 parallel MPI-processes    *
           *              working on a common directory               *
           ************************************************************
------------------------------------------------------------------------------
                           ORCA GTO INTEGRAL CALCULATION
------------------------------------------------------------------------------
------------------------------------------------------------------------------
                   ___                                                        
                  /   \      - P O W E R E D   B Y -                         
                 /     \                                                     
                 |  |  |   _    _      __       _____    __    __             
                 |  |  |  | |  | |    /  \     |  _  \  |  |  /  |          
                  \  \/   | |  | |   /    \    | | | |  |  | /  /          
                 / \  \   | |__| |  /  /\  \   | |_| |  |  |/  /          
                |  |  |   |  __  | /  /__\  \  |    /   |      \           
                |  |  |   | |  | | |   __   |  |    \   |  |\   \          
                \     /   | |  | | |  |  |  |  | |\  \  |  | \   \       
                 \___/    |_|  |_| |__|  |__|  |_| \__\ |__|  \__/        
                                                                              
                      - O R C A' S   B I G   F R I E N D -                    
                                      &                                       
                       - I N T E G R A L  F E E D E R -                       
                                                                              
 v1 FN, 2020, v2 2021                                                         
------------------------------------------------------------------------------


Reading SHARK input file ./ZINC000000000214/ZINC000000000214.SHARKINP.tmp ... ok
----------------------
SHARK INTEGRAL PACKAGE
----------------------

Number of atoms                             ...     42
Number of basis functions                   ...    412
Number of shells                            ...    194
Maximum angular momentum                    ...      2
Integral batch strategy                     ... SHARK/LIBINT Hybrid
RI-J (if used) integral strategy            ... SPLIT-RIJ (Revised 2003 algorithm where possible)
Printlevel                                  ...      1
Contraction scheme used                     ... SEGMENTED contraction
Coulomb Range Separation                    ... NOT USED
Exchange Range Separation                   ... NOT USED
Finite Nucleus Model                        ... NOT USED
Auxiliary Coulomb fitting basis             ... NOT available
Auxiliary J/K fitting basis                 ... NOT available
Auxiliary Correlation fitting basis         ... NOT available
Auxiliary 'external' fitting basis          ... NOT available
Integral threshold                          ...     2.500000e-11
Primitive cut-off                           ...     2.500000e-12
Primitive pair pre-selection threshold      ...     2.500000e-12

Calculating pre-screening integrals         ... done (  0.0 sec) Dimension = 194
Organizing shell pair data                  ... done (  0.1 sec)
Shell pair information
Total number of shell pairs                 ...     18915
Shell pairs after pre-screening             ...     14425
Total number of primitive shell pairs       ...     68991
Primitive shell pairs kept                  ...     33360
          la=0 lb=0:   4536 shell pairs
          la=1 lb=0:   5401 shell pairs
          la=1 lb=1:   1649 shell pairs
          la=2 lb=0:   1683 shell pairs
          la=2 lb=1:   1001 shell pairs
          la=2 lb=2:    155 shell pairs

Calculating one electron integrals          ... done (  0.0 sec)
Calculating Nuclear repulsion               ... done (  0.0 sec) ENN=   1950.903909038661 Eh

SHARK setup successfully completed in   0.2 seconds

Maximum memory used throughout the entire GTOINT-calculation: 21.4 MB


           ************************************************************
           *        Program running with 16 parallel MPI-processes    *
           *              working on a common directory               *
           ************************************************************
-------------------------------------------------------------------------------
                                 ORCA SCF
-------------------------------------------------------------------------------

------------
SCF SETTINGS
------------
Hamiltonian:
 Ab initio Hamiltonian  Method          .... Hartree-Fock(GTOs)


General Settings:
 Integral files         IntName         .... ./ZINC000000000214/ZINC000000000214
 Hartree-Fock type      HFTyp           .... RHF
 Total Charge           Charge          ....    0
 Multiplicity           Mult            ....    1
 Number of Electrons    NEL             ....  166
 Basis Dimension        Dim             ....  412
 Nuclear Repulsion      ENuc            ....   1950.9039090387 Eh

Convergence Acceleration:
 DIIS                   CNVDIIS         .... on
   Start iteration      DIISMaxIt       ....    12
   Startup error        DIISStart       ....  0.200000
   # of expansion vecs  DIISMaxEq       ....     5
   Bias factor          DIISBfac        ....   1.050
   Max. coefficient     DIISMaxC        ....  10.000
 Trust-Rad. Augm. Hess. CNVTRAH         .... auto
   Auto Start mean grad. ratio tolernc. ....  1.125000
   Auto Start start iteration           ....    20
   Auto Start num. interpolation iter.  ....    10
   Max. Number of Micro iterations      ....    16
   Max. Number of Macro iterations      .... Maxiter - #DIIS iter
   Number of Davidson start vectors     ....     2
   Converg. threshold I  (grad. norm)   ....   1.000e-05
   Converg. threshold II (energy diff.) ....   1.000e-08
   Grad. Scal. Fac. for Micro threshold ....   0.100
   Minimum threshold for Micro iter.    ....   0.010
   NR start threshold (gradient norm)   ....   0.001
   Initial trust radius                 ....   0.400
   Minimum AH scaling param. (alpha)    ....   1.000
   Maximum AH scaling param. (alpha)    .... 1000.000
   Orbital update algorithm             .... Taylor
   White noise on init. David. guess    .... on
   Maximum white noise                  ....   0.010
   Quad. conv. algorithm                .... NR
 SOSCF                  CNVSOSCF        .... on
   Start iteration      SOSCFMaxIt      ....   150
   Startup grad/error   SOSCFStart      ....  0.003300
 Level Shifting         CNVShift        .... on
   Level shift para.    LevelShift      ....    0.2500
   Turn off err/grad.   ShiftErr        ....    0.0010
 Zerner damping         CNVZerner       .... off
 Static damping         CNVDamp         .... on
   Fraction old density DampFac         ....    0.7000
   Max. Damping (<1)    DampMax         ....    0.9800
   Min. Damping (>=0)   DampMin         ....    0.0000
   Turn off err/grad.   DampErr         ....    0.1000
 Fernandez-Rico         CNVRico         .... off

SCF Procedure:
 Maximum # iterations   MaxIter         ....   125
 SCF integral mode      SCFMode         .... Direct
   Integral package                     .... SHARK and LIBINT hybrid scheme
 Reset frequency        DirectResetFreq ....    20
 Integral Threshold     Thresh          ....  2.500e-11 Eh
 Primitive CutOff       TCut            ....  2.500e-12 Eh

Convergence Tolerance:
 Convergence Check Mode ConvCheckMode   .... Total+1el-Energy
 Convergence forced     ConvForced      .... 0
 Energy Change          TolE            ....  1.000e-08 Eh
 1-El. energy change                    ....  1.000e-05 Eh
 Orbital Gradient       TolG            ....  1.000e-05
 Orbital Rotation angle TolX            ....  1.000e-05
 DIIS Error             TolErr          ....  5.000e-07


Diagonalization of the overlap matrix:
Smallest eigenvalue                        ... 2.278e-04
Time for diagonalization                   ...    0.022 sec
Threshold for overlap eigenvalues          ... 1.000e-08
Number of eigenvalues below threshold      ... 0
Time for construction of square roots      ...    0.017 sec
Total time needed                          ...    0.040 sec

Time for model grid setup =    0.176 sec

------------------------------
INITIAL GUESS: MODEL POTENTIAL
------------------------------
Loading Hartree-Fock densities                     ... done
Calculating cut-offs                               ... done
Initializing the effective Hamiltonian             ... done
Setting up the integral package (SHARK)            ... done
Starting the Coulomb interaction                   ... done (   0.1 sec)
Reading the grid                                   ... done
Mapping shells                                     ... done
Starting the XC term evaluation                    ... done (   0.0 sec)
Transforming the Hamiltonian                       ... done (   0.0 sec)
Diagonalizing the Hamiltonian                      ... done (   0.0 sec)
Back transforming the eigenvectors                 ... done (   0.0 sec)
Now organizing SCF variables                       ... done
                      ------------------
                      INITIAL GUESS DONE (   0.3 sec)
                      ------------------
--------------
SCF ITERATIONS
--------------
ITER       Energy         Delta-E        Max-DP      RMS-DP      [F,P]     Damp
               ***  Starting incremental Fock matrix formation  ***
  0  -1272.9608497799   0.000000000000 0.06596379  0.00176058  0.2210728 0.7000
  1  -1273.2340192704  -0.273169490450 0.04647464  0.00138436  0.1299400 0.7000
                               ***Turning on DIIS***
  2  -1273.3999005075  -0.165881237087 0.10983995  0.00321398  0.0744070 0.0000
  3  -1272.4321082878   0.967792219606 0.04684066  0.00073488  0.0476730 0.0000
  4  -1273.7980911014  -1.365982813603 0.01195489  0.00028939  0.0114007 0.0000
  5  -1273.8013271595  -0.003236058025 0.00623789  0.00012908  0.0085180 0.0000
                      *** Initiating the SOSCF procedure ***
                           *** Shutting down DIIS ***
                      *** Re-Reading the Fockian *** 
                      *** Removing any level shift *** 
ITER      Energy       Delta-E        Grad      Rot      Max-DP    RMS-DP
  6  -1273.73822665   0.0631005119  0.002432  0.002432  0.003672  0.000067
               *** Restarting incremental Fock matrix formation ***
  7  -1273.74990468  -0.0116780373  0.001340  0.003311  0.001838  0.000041
  8  -1273.74995539  -0.0000507073  0.000573  0.003372  0.002933  0.000048
  9  -1273.74997519  -0.0000197941  0.000144  0.000293  0.000500  0.000008
 10  -1273.74997697  -0.0000017881  0.000092  0.000192  0.000242  0.000004
 11  -1273.74997748  -0.0000005024  0.000040  0.000136  0.000071  0.000002
 12  -1273.74997759  -0.0000001092  0.000014  0.000049  0.000032  0.000001
 13  -1273.74997759  -0.0000000062  0.000005  0.000013  0.000015  0.000000
                  ***Gradient check signals convergence***
              ***Rediagonalizing the Fockian in SOSCF/NRSCF***

               *****************************************************
               *                     SUCCESS                       *
               *           SCF CONVERGED AFTER  14 CYCLES          *
               *****************************************************


----------------
TOTAL SCF ENERGY
----------------

Total Energy       :        -1273.74997759 Eh          -34660.49900 eV

Components:
Nuclear Repulsion  :         1950.90390904 Eh           53086.79425 eV
Electronic Energy  :        -3224.65388663 Eh          -87747.29324 eV
One Electron Energy:        -5618.75842820 Eh         -152894.18982 eV
Two Electron Energy:         2394.10454157 Eh           65146.89658 eV

Virial components:
Potential Energy   :        -2542.68516423 Eh          -69189.98087 eV
Kinetic Energy     :         1268.93518664 Eh           34529.48187 eV
Virial Ratio       :            2.00379436


---------------
SCF CONVERGENCE
---------------

  Last Energy change         ...    1.3442e-09  Tolerance :   1.0000e-08
  Last MAX-Density change    ...    1.1247e-05  Tolerance :   1.0000e-07
  Last RMS-Density change    ...    1.6057e-07  Tolerance :   5.0000e-09
  Last Orbital Gradient      ...    1.6611e-06  Tolerance :   1.0000e-05
  Last Orbital Rotation      ...    5.6036e-06  Tolerance :   1.0000e-05

             **** THE GBW FILE WAS UPDATED (./ZINC000000000214/ZINC000000000214.gbw) ****
             **** DENSITY ./ZINC000000000214/ZINC000000000214.scfp WAS UPDATED ****
             **** ENERGY FILE WAS UPDATED (./ZINC000000000214/ZINC000000000214.en.tmp) ****
             **** THE GBW FILE WAS UPDATED (./ZINC000000000214/ZINC000000000214.gbw) ****
             **** DENSITY ./ZINC000000000214/ZINC000000000214.scfp WAS UPDATED ****
----------------
ORBITAL ENERGIES
----------------

  NO   OCC          E(Eh)            E(eV) 
   0   2.0000     -91.939187     -2501.7925 
   1   2.0000     -20.556208      -559.3628 
   2   2.0000     -15.617824      -424.9826 
   3   2.0000     -15.551411      -423.1754 
   4   2.0000     -11.382698      -309.7390 
   5   2.0000     -11.316398      -307.9348 
   6   2.0000     -11.309815      -307.7557 
   7   2.0000     -11.287866      -307.1585 
   8   2.0000     -11.282412      -307.0100 
   9   2.0000     -11.273941      -306.7795 
  10   2.0000     -11.261099      -306.4301 
  11   2.0000     -11.260774      -306.4212 
  12   2.0000     -11.256256      -306.2983 
  13   2.0000     -11.255878      -306.2880 
  14   2.0000     -11.253364      -306.2196 
  15   2.0000     -11.253211      -306.2155 
  16   2.0000     -11.251396      -306.1661 
  17   2.0000     -11.244674      -305.9831 
  18   2.0000     -11.242905      -305.9350 
  19   2.0000     -11.241464      -305.8958 
  20   2.0000     -11.220818      -305.3340 
  21   2.0000     -11.218749      -305.2777 
  22   2.0000      -8.974913      -244.2198 
  23   2.0000      -6.662966      -181.3085 
  24   2.0000      -6.661363      -181.2649 
  25   2.0000      -6.659043      -181.2018 
  26   2.0000      -1.386067       -37.7168 
  27   2.0000      -1.273124       -34.6435 
  28   2.0000      -1.215102       -33.0646 
  29   2.0000      -1.162015       -31.6200 
  30   2.0000      -1.152552       -31.3625 
  31   2.0000      -1.080488       -29.4016 
  32   2.0000      -1.034105       -28.1394 
  33   2.0000      -1.020254       -27.7625 
  34   2.0000      -1.019522       -27.7426 
  35   2.0000      -1.012574       -27.5535 
  36   2.0000      -0.991049       -26.9678 
  37   2.0000      -0.945274       -25.7222 
  38   2.0000      -0.926623       -25.2147 
  39   2.0000      -0.873346       -23.7649 
  40   2.0000      -0.855064       -23.2675 
  41   2.0000      -0.843612       -22.9559 
  42   2.0000      -0.827421       -22.5153 
  43   2.0000      -0.798844       -21.7377 
  44   2.0000      -0.775050       -21.0902 
  45   2.0000      -0.758060       -20.6279 
  46   2.0000      -0.737171       -20.0594 
  47   2.0000      -0.698855       -19.0168 
  48   2.0000      -0.677148       -18.4261 
  49   2.0000      -0.671537       -18.2734 
  50   2.0000      -0.664098       -18.0710 
  51   2.0000      -0.655867       -17.8471 
  52   2.0000      -0.649617       -17.6770 
  53   2.0000      -0.647131       -17.6093 
  54   2.0000      -0.636800       -17.3282 
  55   2.0000      -0.619562       -16.8591 
  56   2.0000      -0.611351       -16.6357 
  57   2.0000      -0.604255       -16.4426 
  58   2.0000      -0.594246       -16.1703 
  59   2.0000      -0.588148       -16.0043 
  60   2.0000      -0.571932       -15.5631 
  61   2.0000      -0.564171       -15.3519 
  62   2.0000      -0.555305       -15.1106 
  63   2.0000      -0.548830       -14.9344 
  64   2.0000      -0.540123       -14.6975 
  65   2.0000      -0.536570       -14.6008 
  66   2.0000      -0.523564       -14.2469 
  67   2.0000      -0.522307       -14.2127 
  68   2.0000      -0.514493       -14.0001 
  69   2.0000      -0.513894       -13.9838 
  70   2.0000      -0.501287       -13.6407 
  71   2.0000      -0.494066       -13.4442 
  72   2.0000      -0.483136       -13.1468 
  73   2.0000      -0.475321       -12.9341 
  74   2.0000      -0.471726       -12.8363 
  75   2.0000      -0.465509       -12.6672 
  76   2.0000      -0.440557       -11.9882 
  77   2.0000      -0.432696       -11.7743 
  78   2.0000      -0.363537        -9.8923 
  79   2.0000      -0.358767        -9.7625 
  80   2.0000      -0.352866        -9.6020 
  81   2.0000      -0.321720        -8.7544 
  82   2.0000      -0.279830        -7.6146 
  83   0.0000       0.097145         2.6435 
  84   0.0000       0.105807         2.8792 
  85   0.0000       0.118962         3.2371 
  86   0.0000       0.125496         3.4149 
  87   0.0000       0.161675         4.3994 
  88   0.0000       0.166058         4.5187 
  89   0.0000       0.174799         4.7565 
  90   0.0000       0.183826         5.0022 
  91   0.0000       0.195963         5.3324 
  92   0.0000       0.203323         5.5327 
  93   0.0000       0.211455         5.7540 
  94   0.0000       0.217987         5.9317 
  95   0.0000       0.230440         6.2706 
  96   0.0000       0.232892         6.3373 
  97   0.0000       0.244923         6.6647 
  98   0.0000       0.252870         6.8810 
  99   0.0000       0.257629         7.0105 
 100   0.0000       0.259399         7.0586 
 101   0.0000       0.266009         7.2385 
 102   0.0000       0.271102         7.3770 
 103   0.0000       0.273994         7.4558 
 104   0.0000       0.280141         7.6230 
 105   0.0000       0.287390         7.8203 
 106   0.0000       0.301196         8.1960 
 107   0.0000       0.314630         8.5615 
 108   0.0000       0.322721         8.7817 
 109   0.0000       0.329048         8.9539 
 110   0.0000       0.338939         9.2230 
 111   0.0000       0.345115         9.3911 
 112   0.0000       0.349524         9.5110 
 113   0.0000       0.361258         9.8303 
 114   0.0000       0.389264        10.5924 
 115   0.0000       0.399946        10.8831 
 116   0.0000       0.410981        11.1834 
 117   0.0000       0.418851        11.3975 
 118   0.0000       0.421980        11.4827 
 119   0.0000       0.428501        11.6601 
 120   0.0000       0.433318        11.7912 
 121   0.0000       0.445797        12.1308 
 122   0.0000       0.455016        12.3816 
 123   0.0000       0.459886        12.5141 
 124   0.0000       0.466234        12.6869 
 125   0.0000       0.479636        13.0516 
 126   0.0000       0.493319        13.4239 
 127   0.0000       0.497915        13.5490 
 128   0.0000       0.505402        13.7527 
 129   0.0000       0.510543        13.8926 
 130   0.0000       0.535989        14.5850 
 131   0.0000       0.542641        14.7660 
 132   0.0000       0.558670        15.2022 
 133   0.0000       0.576778        15.6949 
 134   0.0000       0.578707        15.7474 
 135   0.0000       0.588585        16.0162 
 136   0.0000       0.590332        16.0638 
 137   0.0000       0.605033        16.4638 
 138   0.0000       0.609205        16.5773 
 139   0.0000       0.614066        16.7096 
 140   0.0000       0.628251        17.0956 
 141   0.0000       0.631115        17.1735 
 142   0.0000       0.642066        17.4715 
 143   0.0000       0.651982        17.7413 
 144   0.0000       0.661335        17.9958 
 145   0.0000       0.664567        18.0838 
 146   0.0000       0.666964        18.1490 
 147   0.0000       0.674995        18.3676 
 148   0.0000       0.677813        18.4442 
 149   0.0000       0.686931        18.6923 
 150   0.0000       0.695868        18.9355 
 151   0.0000       0.700147        19.0520 
 152   0.0000       0.711297        19.3554 
 153   0.0000       0.716869        19.5070 
 154   0.0000       0.732686        19.9374 
 155   0.0000       0.741186        20.1687 
 156   0.0000       0.752717        20.4825 
 157   0.0000       0.766465        20.8566 
 158   0.0000       0.772378        21.0175 
 159   0.0000       0.783388        21.3171 
 160   0.0000       0.789922        21.4949 
 161   0.0000       0.793322        21.5874 
 162   0.0000       0.801575        21.8120 
 163   0.0000       0.803842        21.8736 
 164   0.0000       0.821389        22.3511 
 165   0.0000       0.827149        22.5079 
 166   0.0000       0.834035        22.6952 
 167   0.0000       0.845950        23.0195 
 168   0.0000       0.849745        23.1227 
 169   0.0000       0.858255        23.3543 
 170   0.0000       0.862457        23.4686 
 171   0.0000       0.862951        23.4821 
 172   0.0000       0.873744        23.7758 
 173   0.0000       0.878482        23.9047 
 174   0.0000       0.880928        23.9713 
 175   0.0000       0.884769        24.0758 
 176   0.0000       0.891767        24.2662 
 177   0.0000       0.892896        24.2969 
 178   0.0000       0.899221        24.4690 
 179   0.0000       0.899897        24.4874 
 180   0.0000       0.904518        24.6132 
 181   0.0000       0.907724        24.7004 
 182   0.0000       0.914791        24.8927 
 183   0.0000       0.919032        25.0081 
 184   0.0000       0.924172        25.1480 
 185   0.0000       0.925188        25.1757 
 186   0.0000       0.933361        25.3980 
 187   0.0000       0.937023        25.4977 
 188   0.0000       0.938618        25.5411 
 189   0.0000       0.944830        25.7101 
 190   0.0000       0.948966        25.8227 
 191   0.0000       0.956015        26.0145 
 192   0.0000       0.963873        26.2283 
 193   0.0000       0.965808        26.2810 
 194   0.0000       0.972215        26.4553 
 195   0.0000       0.976198        26.5637 
 196   0.0000       0.979180        26.6448 
 197   0.0000       0.981512        26.7083 
 198   0.0000       0.990427        26.9509 
 199   0.0000       0.995676        27.0937 
 200   0.0000       1.004545        27.3351 
 201   0.0000       1.014971        27.6188 
 202   0.0000       1.022464        27.8227 
 203   0.0000       1.033829        28.1319 
 204   0.0000       1.037652        28.2359 
 205   0.0000       1.053745        28.6739 
 206   0.0000       1.066138        29.0111 
 207   0.0000       1.071897        29.1678 
 208   0.0000       1.080801        29.4101 
 209   0.0000       1.097786        29.8723 
 210   0.0000       1.114001        30.3135 
 211   0.0000       1.121455        30.5163 
 212   0.0000       1.129914        30.7465 
 213   0.0000       1.131959        30.8022 
 214   0.0000       1.157744        31.5038 
 215   0.0000       1.159566        31.5534 
 216   0.0000       1.172452        31.9040 
 217   0.0000       1.190747        32.4019 
 218   0.0000       1.207938        32.8697 
 219   0.0000       1.225389        33.3445 
 220   0.0000       1.239028        33.7157 
 221   0.0000       1.266555        34.4647 
 222   0.0000       1.277366        34.7589 
 223   0.0000       1.285087        34.9690 
 224   0.0000       1.292927        35.1823 
 225   0.0000       1.307087        35.5676 
 226   0.0000       1.331975        36.2449 
 227   0.0000       1.342610        36.5343 
 228   0.0000       1.369160        37.2567 
 229   0.0000       1.374066        37.3902 
 230   0.0000       1.382170        37.6107 
 231   0.0000       1.403326        38.1864 
 232   0.0000       1.411699        38.4143 
 233   0.0000       1.424167        38.7536 
 234   0.0000       1.437620        39.1196 
 235   0.0000       1.445114        39.3235 
 236   0.0000       1.448203        39.4076 
 237   0.0000       1.456396        39.6306 
 238   0.0000       1.465139        39.8684 
 239   0.0000       1.473236        40.0888 
 240   0.0000       1.496707        40.7275 
 241   0.0000       1.507226        41.0137 
 242   0.0000       1.509178        41.0668 
 243   0.0000       1.515508        41.2391 
 244   0.0000       1.525231        41.5037 
 245   0.0000       1.536297        41.8048 
 246   0.0000       1.539707        41.8976 
 247   0.0000       1.547460        42.1085 
 248   0.0000       1.557690        42.3869 
 249   0.0000       1.564973        42.5851 
 250   0.0000       1.575324        42.8668 
 251   0.0000       1.591891        43.3176 
 252   0.0000       1.603371        43.6299 
 253   0.0000       1.617143        44.0047 
 254   0.0000       1.641556        44.6690 
 255   0.0000       1.658681        45.1350 
 256   0.0000       1.670153        45.4472 
 257   0.0000       1.709266        46.5115 
 258   0.0000       1.727573        47.0097 
 259   0.0000       1.760222        47.8981 
 260   0.0000       1.772276        48.2261 
 261   0.0000       1.783292        48.5258 
 262   0.0000       1.788150        48.6580 
 263   0.0000       1.803223        49.0682 
 264   0.0000       1.810248        49.2593 
 265   0.0000       1.827921        49.7402 
 266   0.0000       1.836137        49.9638 
 267   0.0000       1.871802        50.9343 
 268   0.0000       1.893125        51.5146 
 269   0.0000       1.912575        52.0438 
 270   0.0000       1.932967        52.5987 
 271   0.0000       1.947112        52.9836 
 272   0.0000       1.957623        53.2696 
 273   0.0000       1.975612        53.7591 
 274   0.0000       1.985053        54.0160 
 275   0.0000       1.986851        54.0650 
 276   0.0000       1.990824        54.1731 
 277   0.0000       1.996086        54.3163 
 278   0.0000       2.005488        54.5721 
 279   0.0000       2.016151        54.8623 
 280   0.0000       2.027211        55.1632 
 281   0.0000       2.033725        55.3405 
 282   0.0000       2.038591        55.4729 
 283   0.0000       2.039950        55.5099 
 284   0.0000       2.047344        55.7111 
 285   0.0000       2.050267        55.7906 
 286   0.0000       2.054315        55.9007 
 287   0.0000       2.061504        56.0964 
 288   0.0000       2.065635        56.2088 
 289   0.0000       2.075121        56.4669 
 290   0.0000       2.076764        56.5116 
 291   0.0000       2.082016        56.6545 
 292   0.0000       2.086513        56.7769 
 293   0.0000       2.095334        57.0169 
 294   0.0000       2.098649        57.1071 
 295   0.0000       2.104559        57.2680 
 296   0.0000       2.116330        57.5883 
 297   0.0000       2.123066        57.7716 
 298   0.0000       2.134075        58.0711 
 299   0.0000       2.137884        58.1748 
 300   0.0000       2.143862        58.3375 
 301   0.0000       2.152948        58.5847 
 302   0.0000       2.167808        58.9891 
 303   0.0000       2.188020        59.5390 
 304   0.0000       2.192167        59.6519 
 305   0.0000       2.201785        59.9136 
 306   0.0000       2.208365        60.0927 
 307   0.0000       2.215938        60.2987 
 308   0.0000       2.223587        60.5069 
 309   0.0000       2.227863        60.6232 
 310   0.0000       2.231878        60.7325 
 311   0.0000       2.242727        61.0277 
 312   0.0000       2.249362        61.2083 
 313   0.0000       2.260215        61.5036 
 314   0.0000       2.267738        61.7083 
 315   0.0000       2.269878        61.7665 
 316   0.0000       2.290224        62.3202 
 317   0.0000       2.301645        62.6310 
 318   0.0000       2.304171        62.6997 
 319   0.0000       2.321854        63.1809 
 320   0.0000       2.326747        63.3140 
 321   0.0000       2.346908        63.8626 
 322   0.0000       2.351473        63.9868 
 323   0.0000       2.362152        64.2774 
 324   0.0000       2.374824        64.6222 
 325   0.0000       2.375455        64.6394 
 326   0.0000       2.408144        65.5289 
 327   0.0000       2.428014        66.0696 
 328   0.0000       2.434815        66.2547 
 329   0.0000       2.442639        66.4676 
 330   0.0000       2.452179        66.7272 
 331   0.0000       2.463808        67.0436 
 332   0.0000       2.467890        67.1547 
 333   0.0000       2.490881        67.7803 
 334   0.0000       2.505597        68.1808 
 335   0.0000       2.532506        68.9130 
 336   0.0000       2.552678        69.4619 
 337   0.0000       2.557613        69.5962 
 338   0.0000       2.567444        69.8637 
 339   0.0000       2.577999        70.1509 
 340   0.0000       2.585293        70.3494 
 341   0.0000       2.595888        70.6377 
 342   0.0000       2.597850        70.6911 
 343   0.0000       2.605435        70.8975 
 344   0.0000       2.612269        71.0835 
 345   0.0000       2.616425        71.1965 
 346   0.0000       2.623717        71.3950 
 347   0.0000       2.665447        72.5305 
 348   0.0000       2.673228        72.7422 
 349   0.0000       2.689236        73.1778 
 350   0.0000       2.709809        73.7376 
 351   0.0000       2.717931        73.9587 
 352   0.0000       2.728037        74.2337 
 353   0.0000       2.747582        74.7655 
 354   0.0000       2.754238        74.9466 
 355   0.0000       2.767088        75.2963 
 356   0.0000       2.781899        75.6993 
 357   0.0000       2.792225        75.9803 
 358   0.0000       2.832979        77.0893 
 359   0.0000       2.849402        77.5362 
 360   0.0000       2.860666        77.8427 
 361   0.0000       2.881049        78.3973 
 362   0.0000       2.895772        78.7980 
 363   0.0000       2.907569        79.1190 
 364   0.0000       2.911862        79.2358 
 365   0.0000       2.930457        79.7418 
 366   0.0000       2.943394        80.0938 
 367   0.0000       2.946425        80.1763 
 368   0.0000       2.966857        80.7323 
 369   0.0000       2.982690        81.1631 
 370   0.0000       2.997390        81.5631 
 371   0.0000       3.008096        81.8545 
 372   0.0000       3.035616        82.6033 
 373   0.0000       3.059087        83.2420 
 374   0.0000       3.061073        83.2960 
 375   0.0000       3.069766        83.5326 
 376   0.0000       3.076892        83.7265 
 377   0.0000       3.077774        83.7505 
 378   0.0000       3.097383        84.2841 
 379   0.0000       3.128623        85.1342 
 380   0.0000       3.138281        85.3970 
 381   0.0000       3.150313        85.7244 
 382   0.0000       3.177058        86.4522 
 383   0.0000       3.180724        86.5519 
 384   0.0000       3.185170        86.6729 
 385   0.0000       3.199939        87.0748 
 386   0.0000       3.201923        87.1288 
 387   0.0000       3.233442        87.9864 
 388   0.0000       3.237852        88.1064 
 389   0.0000       3.269567        88.9694 
 390   0.0000       3.277611        89.1883 
 391   0.0000       3.304689        89.9252 
 392   0.0000       3.311210        90.1026 
 393   0.0000       3.320648        90.3594 
 394   0.0000       3.326475        90.5180 
 395   0.0000       3.364511        91.5530 
 396   0.0000       3.378658        91.9380 
 397   0.0000       3.399706        92.5107 
 398   0.0000       3.420314        93.0715 
 399   0.0000       3.448139        93.8286 
 400   0.0000       3.457735        94.0897 
 401   0.0000       3.473722        94.5248 
 402   0.0000       3.503986        95.3483 
 403   0.0000       3.543507        96.4237 
 404   0.0000       3.569115        97.1206 
 405   0.0000       3.574694        97.2724 
 406   0.0000       3.607641        98.1689 
 407   0.0000       3.664323        99.7113 
 408   0.0000       3.830181       104.2245 
 409   0.0000       3.941143       107.2439 
 410   0.0000       3.982389       108.3663 
 411   0.0000       4.041904       109.9858 

                    ********************************
                    * MULLIKEN POPULATION ANALYSIS *
                    ********************************

-----------------------
MULLIKEN ATOMIC CHARGES
-----------------------
   0 C :   -0.062421
   1 C :    0.104301
   2 N :   -0.633046
   3 C :    0.111824
   4 C :   -0.025857
   5 C :    0.219533
   6 C :    0.411382
   7 O :   -0.370037
   8 N :   -0.674445
   9 C :    0.265370
  10 C :   -0.103318
  11 C :   -0.015293
  12 C :   -0.036697
  13 C :   -0.005757
  14 C :   -0.145241
  15 S :    0.143253
  16 C :   -0.163264
  17 C :   -0.006026
  18 C :   -0.037338
  19 C :   -0.018911
  20 C :   -0.099044
  21 C :    0.281930
  22 H :    0.036260
  23 H :    0.039449
  24 H :    0.031928
  25 H :    0.035609
  26 H :    0.043828
  27 H :    0.032564
  28 H :    0.011743
  29 H :    0.047396
  30 H :    0.028230
  31 H :    0.023046
  32 H :    0.053811
  33 H :    0.047518
  34 H :    0.059847
  35 H :    0.049237
  36 H :    0.047964
  37 H :    0.049079
  38 H :    0.045755
  39 H :    0.043499
  40 H :    0.046834
  41 H :    0.085510
Sum of atomic charges:   -0.0000000

--------------------------------
MULLIKEN REDUCED ORBITAL CHARGES
--------------------------------
  0 C s       :     3.051807  s :     3.051807
      pz      :     0.955254  p :     2.973565
      px      :     1.009602
      py      :     1.008709
      dz2     :     0.007619  d :     0.037048
      dxz     :     0.004392
      dyz     :     0.011036
      dx2y2   :     0.004527
      dxy     :     0.009474
  1 C s       :     3.046905  s :     3.046905
      pz      :     0.829974  p :     2.787473
      px      :     1.037318
      py      :     0.920181
      dz2     :     0.017490  d :     0.061321
      dxz     :     0.007438
      dyz     :     0.017980
      dx2y2   :     0.005612
      dxy     :     0.012800
  2 N s       :     3.603011  s :     3.603011
      pz      :     1.513993  p :     3.998551
      px      :     1.156615
      py      :     1.327942
      dz2     :     0.006435  d :     0.031484
      dxz     :     0.004024
      dyz     :     0.005965
      dx2y2   :     0.004437
      dxy     :     0.010623
  3 C s       :     3.039265  s :     3.039265
      pz      :     1.006626  p :     2.787628
      px      :     0.872991
      py      :     0.908010
      dz2     :     0.009015  d :     0.061284
      dxz     :     0.010257
      dyz     :     0.016560
      dx2y2   :     0.008239
      dxy     :     0.017212
  4 C s       :     3.039148  s :     3.039148
      pz      :     0.962481  p :     2.949418
      px      :     0.985342
      py      :     1.001596
      dz2     :     0.006192  d :     0.037291
      dxz     :     0.006746
      dyz     :     0.011579
      dx2y2   :     0.002474
      dxy     :     0.010301
  5 C s       :     2.964584  s :     2.964584
      pz      :     1.001102  p :     2.759718
      px      :     0.821610
      py      :     0.937005
      dz2     :     0.008189  d :     0.056165
      dxz     :     0.010320
      dyz     :     0.013808
      dx2y2   :     0.006276
      dxy     :     0.017571
  6 C s       :     3.090789  s :     3.090789
      pz      :     0.744182  p :     2.369853
      px      :     0.785472
      py      :     0.840198
      dz2     :     0.030242  d :     0.127977
      dxz     :     0.032675
      dyz     :     0.018166
      dx2y2   :     0.022771
      dxy     :     0.024124
  7 O s       :     3.809469  s :     3.809469
      pz      :     1.336199  p :     4.540623
      px      :     1.786069
      py      :     1.418355
      dz2     :     0.006014  d :     0.019945
      dxz     :     0.002170
      dyz     :     0.006620
      dx2y2   :     0.002896
      dxy     :     0.002246
  8 N s       :     3.502680  s :     3.502680
      pz      :     1.596636  p :     4.144812
      px      :     1.332651
      py      :     1.215525
      dz2     :     0.003218  d :     0.026953
      dxz     :     0.004549
      dyz     :     0.004231
      dx2y2   :     0.007384
      dxy     :     0.007570
  9 C s       :     2.975332  s :     2.975332
      pz      :     0.950175  p :     2.692093
      px      :     0.976315
      py      :     0.765603
      dz2     :     0.012672  d :     0.067205
      dxz     :     0.010745
      dyz     :     0.016687
      dx2y2   :     0.012605
      dxy     :     0.014496
 10 C s       :     3.171592  s :     3.171592
      pz      :     0.934937  p :     2.889620
      px      :     0.999712
      py      :     0.954971
      dz2     :     0.007578  d :     0.042106
      dxz     :     0.006561
      dyz     :     0.011343
      dx2y2   :     0.007987
      dxy     :     0.008637
 11 C s       :     3.120133  s :     3.120133
      pz      :     0.949217  p :     2.850533
      px      :     0.960762
      py      :     0.940554
      dz2     :     0.008204  d :     0.044627
      dxz     :     0.007250
      dyz     :     0.010790
      dx2y2   :     0.009625
      dxy     :     0.008758
 12 C s       :     3.128757  s :     3.128757
      pz      :     0.959017  p :     2.863462
      px      :     0.968815
      py      :     0.935630
      dz2     :     0.010262  d :     0.044478
      dxz     :     0.008231
      dyz     :     0.010415
      dx2y2   :     0.007434
      dxy     :     0.008135
 13 C s       :     3.177423  s :     3.177423
      pz      :     0.921610  p :     2.784892
      px      :     0.958704
      py      :     0.904578
      dz2     :     0.007921  d :     0.043443
      dxz     :     0.006938
      dyz     :     0.010302
      dx2y2   :     0.008847
      dxy     :     0.009435
 14 C s       :     2.918443  s :     2.918443
      pz      :     1.045663  p :     3.174039
      px      :     1.072378
      py      :     1.055999
      dz2     :     0.009647  d :     0.052759
      dxz     :     0.009244
      dyz     :     0.012885
      dx2y2   :     0.010063
      dxy     :     0.010919
 15 S s       :     5.838545  s :     5.838545
      pz      :     3.297549  p :     9.912353
      px      :     3.770795
      py      :     2.844009
      dz2     :     0.017220  d :     0.105850
      dxz     :     0.009533
      dyz     :     0.044638
      dx2y2   :     0.014902
      dxy     :     0.019558
 16 C s       :     2.927072  s :     2.927072
      pz      :     1.072018  p :     3.184040
      px      :     1.073059
      py      :     1.038963
      dz2     :     0.008946  d :     0.052153
      dxz     :     0.007547
      dyz     :     0.011745
      dx2y2   :     0.012139
      dxy     :     0.011776
 17 C s       :     3.173954  s :     3.173954
      pz      :     0.957022  p :     2.788525
      px      :     0.955008
      py      :     0.876495
      dz2     :     0.005609  d :     0.043547
      dxz     :     0.005362
      dyz     :     0.011161
      dx2y2   :     0.010115
      dxy     :     0.011300
 18 C s       :     3.127836  s :     3.127836
      pz      :     0.970127  p :     2.864900
      px      :     0.970479
      py      :     0.924293
      dz2     :     0.007336  d :     0.044601
      dxz     :     0.006675
      dyz     :     0.010013
      dx2y2   :     0.010469
      dxy     :     0.010108
 19 C s       :     3.122652  s :     3.122652
      pz      :     0.959703  p :     2.851532
      px      :     0.959544
      py      :     0.932285
      dz2     :     0.008273  d :     0.044727
      dxz     :     0.007191
      dyz     :     0.009224
      dx2y2   :     0.010490
      dxy     :     0.009550
 20 C s       :     3.184652  s :     3.184652
      pz      :     0.974868  p :     2.872647
      px      :     0.970994
      py      :     0.926785
      dz2     :     0.005566  d :     0.041745
      dxz     :     0.005161
      dyz     :     0.010350
      dx2y2   :     0.010395
      dxy     :     0.010272
 21 C s       :     2.973398  s :     2.973398
      pz      :     0.941485  p :     2.678064
      px      :     0.972612
      py      :     0.763967
      dz2     :     0.012738  d :     0.066608
      dxz     :     0.008136
      dyz     :     0.017097
      dx2y2   :     0.012782
      dxy     :     0.015855
 22 H s       :     0.938273  s :     0.938273
      pz      :     0.010604  p :     0.025467
      px      :     0.004090
      py      :     0.010773
 23 H s       :     0.935068  s :     0.935068
      pz      :     0.003598  p :     0.025483
      px      :     0.015555
      py      :     0.006330
 24 H s       :     0.942867  s :     0.942867
      pz      :     0.005085  p :     0.025205
      px      :     0.009610
      py      :     0.010510
 25 H s       :     0.940946  s :     0.940946
      pz      :     0.002982  p :     0.023445
      px      :     0.014179
      py      :     0.006285
 26 H s       :     0.932317  s :     0.932317
      pz      :     0.003379  p :     0.023855
      px      :     0.009485
      py      :     0.010991
 27 H s       :     0.943857  s :     0.943857
      pz      :     0.005769  p :     0.023580
      px      :     0.011624
      py      :     0.006186
 28 H s       :     0.965412  s :     0.965412
      pz      :     0.009014  p :     0.022844
      px      :     0.003538
      py      :     0.010293
 29 H s       :     0.927567  s :     0.927567
      pz      :     0.009696  p :     0.025037
      px      :     0.004409
      py      :     0.010932
 30 H s       :     0.946361  s :     0.946361
      pz      :     0.004082  p :     0.025409
      px      :     0.013512
      py      :     0.007815
 31 H s       :     0.951466  s :     0.951466
      pz      :     0.005900  p :     0.025488
      px      :     0.009995
      py      :     0.009593
 32 H s       :     0.921633  s :     0.921633
      pz      :     0.013697  p :     0.024556
      px      :     0.002978
      py      :     0.007880
 33 H s       :     0.929310  s :     0.929310
      pz      :     0.011799  p :     0.023172
      px      :     0.002972
      py      :     0.008402
 34 H s       :     0.914330  s :     0.914330
      pz      :     0.013182  p :     0.025823
      px      :     0.009412
      py      :     0.003229
 35 H s       :     0.925086  s :     0.925086
      pz      :     0.012084  p :     0.025676
      px      :     0.003901
      py      :     0.009691
 36 H s       :     0.926343  s :     0.926343
      pz      :     0.002929  p :     0.025694
      px      :     0.006830
      py      :     0.015935
 37 H s       :     0.924988  s :     0.924988
      pz      :     0.011083  p :     0.025933
      px      :     0.011107
      py      :     0.003743
 38 H s       :     0.928304  s :     0.928304
      pz      :     0.011762  p :     0.025941
      px      :     0.011568
      py      :     0.002611
 39 H s       :     0.930831  s :     0.930831
      pz      :     0.006388  p :     0.025670
      px      :     0.005990
      py      :     0.013292
 40 H s       :     0.927598  s :     0.927598
      pz      :     0.004454  p :     0.025569
      px      :     0.004743
      py      :     0.016371
 41 H s       :     0.886911  s :     0.886911
      pz      :     0.012674  p :     0.027579
      px      :     0.012028
      py      :     0.002877


                     *******************************
                     * LOEWDIN POPULATION ANALYSIS *
                     *******************************

----------------------
LOEWDIN ATOMIC CHARGES
----------------------
   0 C :   -0.053321
   1 C :    0.052014
   2 N :   -0.190444
   3 C :    0.059570
   4 C :   -0.039072
   5 C :    0.049459
   6 C :    0.207416
   7 O :   -0.229650
   8 N :   -0.130159
   9 C :    0.047933
  10 C :   -0.042352
  11 C :   -0.017089
  12 C :   -0.029257
  13 C :   -0.026197
  14 C :   -0.168328
  15 S :    0.321725
  16 C :   -0.172493
  17 C :   -0.031798
  18 C :   -0.033533
  19 C :   -0.017038
  20 C :   -0.035360
  21 C :    0.053255
  22 H :    0.022521
  23 H :    0.014947
  24 H :    0.014126
  25 H :    0.014602
  26 H :    0.011132
  27 H :    0.015585
  28 H :   -0.008031
  29 H :    0.023730
  30 H :    0.018285
  31 H :    0.010221
  32 H :    0.026984
  33 H :    0.004612
  34 H :    0.032665
  35 H :    0.032258
  36 H :    0.030912
  37 H :    0.031833
  38 H :    0.029887
  39 H :    0.028800
  40 H :    0.031291
  41 H :    0.038362

-------------------------------
LOEWDIN REDUCED ORBITAL CHARGES
-------------------------------
  0 C s       :     2.835708  s :     2.835708
      pz      :     1.030004  p :     3.135127
      px      :     1.051601
      py      :     1.053522
      dz2     :     0.017251  d :     0.082486
      dxz     :     0.009539
      dyz     :     0.024750
      dx2y2   :     0.009909
      dxy     :     0.021036
  1 C s       :     2.829063  s :     2.829063
      pz      :     0.951095  p :     2.987343
      px      :     1.061274
      py      :     0.974974
      dz2     :     0.038694  d :     0.131581
      dxz     :     0.015890
      dyz     :     0.037494
      dx2y2   :     0.011398
      dxy     :     0.028104
  2 N s       :     3.149196  s :     3.149196
      pz      :     1.485597  p :     3.982001
      px      :     1.166178
      py      :     1.330226
      dz2     :     0.010957  d :     0.059247
      dxz     :     0.007668
      dyz     :     0.011309
      dx2y2   :     0.009414
      dxy     :     0.019899
  3 C s       :     2.829936  s :     2.829936
      pz      :     1.036350  p :     2.978887
      px      :     0.953528
      py      :     0.989009
      dz2     :     0.018264  d :     0.131607
      dxz     :     0.021781
      dyz     :     0.036842
      dx2y2   :     0.017838
      dxy     :     0.036882
  4 C s       :     2.835498  s :     2.835498
      pz      :     1.029454  p :     3.120878
      px      :     1.042319
      py      :     1.049104
      dz2     :     0.013898  d :     0.082696
      dxz     :     0.014799
      dyz     :     0.025727
      dx2y2   :     0.005284
      dxy     :     0.022987
  5 C s       :     2.838911  s :     2.838911
      pz      :     1.047889  p :     2.989280
      px      :     0.938876
      py      :     1.002515
      dz2     :     0.017043  d :     0.122349
      dxz     :     0.021983
      dyz     :     0.031240
      dx2y2   :     0.013904
      dxy     :     0.038180
  6 C s       :     2.860367  s :     2.860367
      pz      :     0.854268  p :     2.670612
      px      :     0.919668
      py      :     0.896675
      dz2     :     0.055408  d :     0.261605
      dxz     :     0.071410
      dyz     :     0.039602
      dx2y2   :     0.046346
      dxy     :     0.048839
  7 O s       :     3.562285  s :     3.562285
      pz      :     1.397231  p :     4.636630
      px      :     1.769749
      py      :     1.469649
      dz2     :     0.007182  d :     0.030736
      dxz     :     0.003245
      dyz     :     0.012635
      dx2y2   :     0.004537
      dxy     :     0.003137
  8 N s       :     3.068031  s :     3.068031
      pz      :     1.509840  p :     4.004091
      px      :     1.308254
      py      :     1.185998
      dz2     :     0.006267  d :     0.058037
      dxz     :     0.009639
      dyz     :     0.009167
      dx2y2   :     0.016751
      dxy     :     0.016213
  9 C s       :     2.828226  s :     2.828226
      pz      :     1.055448  p :     2.977054
      px      :     0.992438
      py      :     0.929168
      dz2     :     0.026971  d :     0.146787
      dxz     :     0.023583
      dyz     :     0.037008
      dx2y2   :     0.027509
      dxy     :     0.031717
 10 C s       :     2.852707  s :     2.852707
      pz      :     1.017267  p :     3.095137
      px      :     1.025713
      py      :     1.052157
      dz2     :     0.016668  d :     0.094508
      dxz     :     0.014482
      dyz     :     0.026758
      dx2y2   :     0.017699
      dxy     :     0.018902
 11 C s       :     2.849906  s :     2.849906
      pz      :     1.024245  p :     3.067145
      px      :     1.007080
      py      :     1.035820
      dz2     :     0.017834  d :     0.100038
      dxz     :     0.015870
      dyz     :     0.025277
      dx2y2   :     0.021088
      dxy     :     0.019970
 12 C s       :     2.849014  s :     2.849014
      pz      :     1.036330  p :     3.080145
      px      :     1.011581
      py      :     1.032234
      dz2     :     0.023084  d :     0.100098
      dxz     :     0.018627
      dyz     :     0.023853
      dx2y2   :     0.016091
      dxy     :     0.018444
 13 C s       :     2.854332  s :     2.854332
      pz      :     1.030980  p :     3.073390
      px      :     1.000694
      py      :     1.041716
      dz2     :     0.017139  d :     0.098475
      dxz     :     0.015492
      dyz     :     0.024338
      dx2y2   :     0.020549
      dxy     :     0.020957
 14 C s       :     2.891905  s :     2.891905
      pz      :     1.037320  p :     3.164273
      px      :     1.066219
      py      :     1.060734
      dz2     :     0.020441  d :     0.112151
      dxz     :     0.020393
      dyz     :     0.027026
      dx2y2   :     0.020945
      dxy     :     0.023345
 15 S s       :     5.491361  s :     5.491361
      pz      :     3.391016  p :    10.051051
      px      :     3.743520
      py      :     2.916515
      dz2     :     0.021302  d :     0.135863
      dxz     :     0.011779
      dyz     :     0.056739
      dx2y2   :     0.021419
      dxy     :     0.024624
 16 C s       :     2.892854  s :     2.892854
      pz      :     1.066189  p :     3.169086
      px      :     1.066857
      py      :     1.036040
      dz2     :     0.017785  d :     0.110552
      dxz     :     0.016792
      dyz     :     0.025769
      dx2y2   :     0.025188
      dxy     :     0.025017
 17 C s       :     2.853650  s :     2.853650
      pz      :     1.010010  p :     3.079284
      px      :     1.007241
      py      :     1.062033
      dz2     :     0.011885  d :     0.098864
      dxz     :     0.011855
      dyz     :     0.025170
      dx2y2   :     0.024695
      dxy     :     0.025260
 18 C s       :     2.848586  s :     2.848586
      pz      :     1.017768  p :     3.084324
      px      :     1.020162
      py      :     1.046394
      dz2     :     0.015099  d :     0.100623
      dxz     :     0.014788
      dyz     :     0.023249
      dx2y2   :     0.023956
      dxy     :     0.023532
 19 C s       :     2.850715  s :     2.850715
      pz      :     1.010102  p :     3.066112
      px      :     1.012053
      py      :     1.043957
      dz2     :     0.017081  d :     0.100211
      dxz     :     0.016228
      dyz     :     0.021121
      dx2y2   :     0.023875
      dxy     :     0.021906
 20 C s       :     2.853802  s :     2.853802
      pz      :     1.022139  p :     3.088064
      px      :     1.025999
      py      :     1.039927
      dz2     :     0.011395  d :     0.093494
      dxz     :     0.011004
      dyz     :     0.023099
      dx2y2   :     0.024837
      dxy     :     0.023160
 21 C s       :     2.829310  s :     2.829310
      pz      :     0.996753  p :     2.972051
      px      :     0.998474
      py      :     0.976824
      dz2     :     0.026377  d :     0.145384
      dxz     :     0.017764
      dyz     :     0.036682
      dx2y2   :     0.029139
      dxy     :     0.035422
 22 H s       :     0.911810  s :     0.911810
      pz      :     0.027205  p :     0.065669
      px      :     0.012300
      py      :     0.026164
 23 H s       :     0.918221  s :     0.918221
      pz      :     0.013023  p :     0.066831
      px      :     0.036418
      py      :     0.017391
 24 H s       :     0.919818  s :     0.919818
      pz      :     0.015931  p :     0.066056
      px      :     0.024013
      py      :     0.026113
 25 H s       :     0.921853  s :     0.921853
      pz      :     0.010802  p :     0.063545
      px      :     0.034040
      py      :     0.018703
 26 H s       :     0.923598  s :     0.923598
      pz      :     0.011925  p :     0.065270
      px      :     0.024339
      py      :     0.029006
 27 H s       :     0.920690  s :     0.920690
      pz      :     0.017343  p :     0.063725
      px      :     0.029310
      py      :     0.017072
 28 H s       :     0.942204  s :     0.942204
      pz      :     0.025664  p :     0.065827
      px      :     0.011938
      py      :     0.028225
 29 H s       :     0.910495  s :     0.910495
      pz      :     0.026028  p :     0.065775
      px      :     0.013265
      py      :     0.026482
 30 H s       :     0.916623  s :     0.916623
      pz      :     0.013036  p :     0.065091
      px      :     0.031679
      py      :     0.020376
 31 H s       :     0.923949  s :     0.923949
      pz      :     0.017220  p :     0.065831
      px      :     0.024867
      py      :     0.023743
 32 H s       :     0.905310  s :     0.905310
      pz      :     0.033679  p :     0.067706
      px      :     0.012337
      py      :     0.021690
 33 H s       :     0.926481  s :     0.926481
      pz      :     0.029702  p :     0.068908
      px      :     0.013768
      py      :     0.025438
 34 H s       :     0.896622  s :     0.896622
      pz      :     0.032707  p :     0.070713
      px      :     0.025821
      py      :     0.012185
 35 H s       :     0.899451  s :     0.899451
      pz      :     0.030038  p :     0.068291
      px      :     0.013400
      py      :     0.024853
 36 H s       :     0.900555  s :     0.900555
      pz      :     0.011336  p :     0.068532
      px      :     0.019494
      py      :     0.037702
 37 H s       :     0.899214  s :     0.899214
      pz      :     0.028345  p :     0.068953
      px      :     0.028129
      py      :     0.012479
 38 H s       :     0.901158  s :     0.901158
      pz      :     0.029892  p :     0.068955
      px      :     0.029012
      py      :     0.010051
 39 H s       :     0.902721  s :     0.902721
      pz      :     0.018596  p :     0.068479
      px      :     0.017789
      py      :     0.032095
 40 H s       :     0.900588  s :     0.900588
      pz      :     0.014559  p :     0.068121
      px      :     0.015164
      py      :     0.038397
 41 H s       :     0.885081  s :     0.885081
      pz      :     0.032536  p :     0.076557
      px      :     0.032146
      py      :     0.011875


                      *****************************
                      * MAYER POPULATION ANALYSIS *
                      *****************************

  NA   - Mulliken gross atomic population
  ZA   - Total nuclear charge
  QA   - Mulliken gross atomic charge
  VA   - Mayer's total valence
  BVA  - Mayer's bonded valence
  FA   - Mayer's free valence

  ATOM       NA         ZA         QA         VA         BVA        FA
  0 C      6.0624     6.0000    -0.0624     3.9327     3.9327     0.0000
  1 C      5.8957     6.0000     0.1043     3.8938     3.8938     0.0000
  2 N      7.6330     7.0000    -0.6330     2.8111     2.8111    -0.0000
  3 C      5.8882     6.0000     0.1118     3.9027     3.9027    -0.0000
  4 C      6.0259     6.0000    -0.0259     3.9628     3.9628    -0.0000
  5 C      5.7805     6.0000     0.2195     3.7631     3.7631    -0.0000
  6 C      5.5886     6.0000     0.4114     3.9629     3.9629     0.0000
  7 O      8.3700     8.0000    -0.3700     2.0831     2.0831     0.0000
  8 N      7.6744     7.0000    -0.6744     2.7816     2.7816     0.0000
  9 C      5.7346     6.0000     0.2654     3.8813     3.8813     0.0000
 10 C      6.1033     6.0000    -0.1033     3.9407     3.9407     0.0000
 11 C      6.0153     6.0000    -0.0153     3.8764     3.8764    -0.0000
 12 C      6.0367     6.0000    -0.0367     3.8928     3.8928    -0.0000
 13 C      6.0058     6.0000    -0.0058     3.9563     3.9563     0.0000
 14 C      6.1452     6.0000    -0.1452     3.9266     3.9266    -0.0000
 15 S     15.8567    16.0000     0.1433     2.0313     2.0313    -0.0000
 16 C      6.1633     6.0000    -0.1633     3.9158     3.9158    -0.0000
 17 C      6.0060     6.0000    -0.0060     3.9513     3.9513    -0.0000
 18 C      6.0373     6.0000    -0.0373     3.8843     3.8843    -0.0000
 19 C      6.0189     6.0000    -0.0189     3.8655     3.8655    -0.0000
 20 C      6.0990     6.0000    -0.0990     3.9489     3.9489    -0.0000
 21 C      5.7181     6.0000     0.2819     3.8601     3.8601    -0.0000
 22 H      0.9637     1.0000     0.0363     0.9817     0.9817     0.0000
 23 H      0.9606     1.0000     0.0394     0.9850     0.9850     0.0000
 24 H      0.9681     1.0000     0.0319     0.9806     0.9806    -0.0000
 25 H      0.9644     1.0000     0.0356     0.9789     0.9789    -0.0000
 26 H      0.9562     1.0000     0.0438     0.9919     0.9919     0.0000
 27 H      0.9674     1.0000     0.0326     0.9777     0.9777    -0.0000
 28 H      0.9883     1.0000     0.0117     0.9677     0.9677    -0.0000
 29 H      0.9526     1.0000     0.0474     0.9863     0.9863     0.0000
 30 H      0.9718     1.0000     0.0282     0.9804     0.9804    -0.0000
 31 H      0.9770     1.0000     0.0230     0.9817     0.9817    -0.0000
 32 H      0.9462     1.0000     0.0538     0.9991     0.9991     0.0000
 33 H      0.9525     1.0000     0.0475     0.9834     0.9834     0.0000
 34 H      0.9402     1.0000     0.0598     0.9923     0.9923     0.0000
 35 H      0.9508     1.0000     0.0492     0.9866     0.9866    -0.0000
 36 H      0.9520     1.0000     0.0480     0.9861     0.9861    -0.0000
 37 H      0.9509     1.0000     0.0491     0.9963     0.9963    -0.0000
 38 H      0.9542     1.0000     0.0458     0.9961     0.9961    -0.0000
 39 H      0.9565     1.0000     0.0435     0.9860     0.9860     0.0000
 40 H      0.9532     1.0000     0.0468     0.9866     0.9866    -0.0000
 41 H      0.9145     1.0000     0.0855     1.0137     1.0137    -0.0000

  Mayer bond orders larger than 0.100000
B(  0-C ,  1-C ) :   1.0241 B(  0-C , 22-H ) :   0.9833 B(  0-C , 23-H ) :   0.9785 
B(  0-C , 24-H ) :   0.9822 B(  1-C ,  2-N ) :   0.9406 B(  1-C , 25-H ) :   0.9827 
B(  1-C , 26-H ) :   0.9801 B(  2-N ,  3-C ) :   0.9296 B(  2-N ,  5-C ) :   0.9586 
B(  3-C ,  4-C ) :   1.0558 B(  3-C , 27-H ) :   0.9788 B(  3-C , 28-H ) :   0.9681 
B(  4-C , 29-H ) :   0.9815 B(  4-C , 30-H ) :   0.9851 B(  4-C , 31-H ) :   0.9824 
B(  5-C ,  6-C ) :   0.9592 B(  5-C , 32-H ) :   0.9582 B(  5-C , 33-H ) :   0.9784 
B(  6-C ,  7-O ) :   2.0349 B(  6-C ,  8-N ) :   0.9328 B(  8-N ,  9-C ) :   0.9063 
B(  8-N , 21-C ) :   0.8866 B(  9-C , 10-C ) :   1.4141 B(  9-C , 14-C ) :   1.4555 
B( 10-C , 11-C ) :   1.4318 B( 10-C , 34-H ) :   0.9908 B( 11-C , 12-C ) :   1.4007 
B( 11-C , 35-H ) :   0.9970 B( 12-C , 13-C ) :   1.4479 B( 12-C , 36-H ) :   1.0006 
B( 13-C , 14-C ) :   1.4132 B( 13-C , 37-H ) :   0.9963 B( 14-C , 15-S ) :   0.9610 
B( 15-S , 16-C ) :   0.9612 B( 16-C , 17-C ) :   1.4141 B( 16-C , 21-C ) :   1.4402 
B( 17-C , 18-C ) :   1.4458 B( 17-C , 38-H ) :   0.9968 B( 18-C , 19-C ) :   1.3968 
B( 18-C , 39-H ) :   1.0010 B( 19-C , 20-C ) :   1.4273 B( 19-C , 40-H ) :   1.0001 
B( 20-C , 21-C ) :   1.4316 B( 20-C , 41-H ) :   0.9867 

-------
TIMINGS
-------

Total SCF time: 0 days 0 hours 0 min 29 sec 

Total time                  ....      29.312 sec
Sum of individual times     ....      28.943 sec  ( 98.7%)

Fock matrix formation       ....      27.924 sec  ( 95.3%)
Diagonalization             ....       0.273 sec  (  0.9%)
Density matrix formation    ....       0.024 sec  (  0.1%)
Population analysis         ....       0.035 sec  (  0.1%)
Initial guess               ....       0.160 sec  (  0.5%)
Orbital Transformation      ....       0.000 sec  (  0.0%)
Orbital Orthonormalization  ....       0.000 sec  (  0.0%)
DIIS solution               ....       0.134 sec  (  0.5%)
SOSCF solution              ....       0.217 sec  (  0.7%)

Maximum memory used throughout the entire SCF-calculation: 242.3 MB

-------------------------   --------------------
FINAL SINGLE POINT ENERGY     -1273.749977590793
-------------------------   --------------------


                            ***************************************
                            *     ORCA property calculations      *
                            ***************************************

                                    ---------------------
                                    Active property flags
                                    ---------------------
   (+) Dipole Moment


------------------------------------------------------------------------------
                       ORCA ELECTRIC PROPERTIES CALCULATION
------------------------------------------------------------------------------

Dipole Moment Calculation                       ... on
Quadrupole Moment Calculation                   ... off
Polarizability Calculation                      ... off
GBWName                                         ... ./ZINC000000000214/ZINC000000000214.gbw
Electron density                                ... ./ZINC000000000214/ZINC000000000214.scfp
The origin for moment calculation is the CENTER OF MASS  = ( 1.322486, -0.195480 -0.077669)

-------------
DIPOLE MOMENT
-------------
                                X             Y             Z
Electronic contribution:     26.91767      -3.69457      -0.43237
Nuclear contribution   :    -26.96003       4.55780      -0.21529
                        -----------------------------------------
Total Dipole Moment    :     -0.04237       0.86324      -0.64766
                        -----------------------------------------
Magnitude (a.u.)       :      1.08002
Magnitude (Debye)      :      2.74518



--------------------
Rotational spectrum 
--------------------
 
Rotational constants in cm-1:     0.010699     0.007726     0.005450 
Rotational constants in MHz :   320.747792   231.624803   163.398217 

 Dipole components along the rotational axes: 
x,y,z [a.u.] :     0.018861     0.655069    -0.858465 
x,y,z [Debye]:     0.047940     1.665053    -2.182045 

 

Timings for individual modules:

Sum of individual times         ...       30.010 sec (=   0.500 min)
GTO integral calculation        ...        0.446 sec (=   0.007 min)   1.5 %
SCF iterations                  ...       29.564 sec (=   0.493 min)  98.5 %
                             ****ORCA TERMINATED NORMALLY****
TOTAL RUN TIME: 0 days 0 hours 0 minutes 30 seconds 402 msec
