
                                 *****************
                                 * O   R   C   A *
                                 *****************

                                            #,                                       
                                            ###                                      
                                            ####                                     
                                            #####                                    
                                            ######                                   
                                           ########,                                 
                                     ,,################,,,,,                         
                               ,,#################################,,                 
                          ,,##########################################,,             
                       ,#########################################, ''#####,          
                    ,#############################################,,   '####,        
                  ,##################################################,,,,####,       
                ,###########''''           ''''###############################       
              ,#####''   ,,,,##########,,,,          '''####'''          '####       
            ,##' ,,,,###########################,,,                        '##       
           ' ,,###''''                  '''############,,,                           
         ,,##''                                '''############,,,,        ,,,,,,###''
      ,#''                                            '''#######################'''  
     '                                                          ''''####''''         
             ,#######,   #######,   ,#######,      ##                                
            ,#'     '#,  ##    ##  ,#'     '#,    #''#        ######   ,####,        
            ##       ##  ##   ,#'  ##            #'  '#       #        #'  '#        
            ##       ##  #######   ##           ,######,      #####,   #    #        
            '#,     ,#'  ##    ##  '#,     ,#' ,#      #,         ##   #,  ,#        
             '#######'   ##     ##  '#######'  #'      '#     #####' # '####'        



                  #######################################################
                  #                        -***-                        #
                  #          Department of theory and spectroscopy      #
                  #    Directorship and core code : Frank Neese         #
                  #        Max Planck Institute fuer Kohlenforschung    #
                  #                Kaiser Wilhelm Platz 1               #
                  #                 D-45470 Muelheim/Ruhr               #
                  #                      Germany                        #
                  #                                                     #
                  #                  All rights reserved                #
                  #                        -***-                        #
                  #######################################################


                         Program Version 5.0.3 -  RELEASE  -


 With contributions from (in alphabetic order):
   Daniel Aravena         : Magnetic Suceptibility
   Michael Atanasov       : Ab Initio Ligand Field Theory (pilot matlab implementation)
   Alexander A. Auer      : GIAO ZORA, VPT2 properties, NMR spectrum
   Ute Becker             : Parallelization
   Giovanni Bistoni       : ED, misc. LED, open-shell LED, HFLD
   Martin Brehm           : Molecular dynamics
   Dmytro Bykov           : SCF Hessian
   Vijay G. Chilkuri      : MRCI spin determinant printing, contributions to CSF-ICE
   Dipayan Datta          : RHF DLPNO-CCSD density
   Achintya Kumar Dutta   : EOM-CC, STEOM-CC
   Dmitry Ganyushin       : Spin-Orbit,Spin-Spin,Magnetic field MRCI
   Miquel Garcia          : C-PCM and meta-GGA Hessian, CC/C-PCM, Gaussian charge scheme
   Yang Guo               : DLPNO-NEVPT2, F12-NEVPT2, CIM, IAO-localization
   Andreas Hansen         : Spin unrestricted coupled pair/coupled cluster methods
   Benjamin Helmich-Paris : MC-RPA, TRAH-SCF, COSX integrals
   Lee Huntington         : MR-EOM, pCC
   Robert Izsak           : Overlap fitted RIJCOSX, COSX-SCS-MP3, EOM
   Marcus Kettner         : VPT2
   Christian Kollmar      : KDIIS, OOCD, Brueckner-CCSD(T), CCSD density, CASPT2, CASPT2-K
   Simone Kossmann        : Meta GGA functionals, TD-DFT gradient, OOMP2, MP2 Hessian
   Martin Krupicka        : Initial AUTO-CI
   Lucas Lang             : DCDCAS
   Marvin Lechner         : AUTO-CI (C++ implementation), FIC-MRCC
   Dagmar Lenk            : GEPOL surface, SMD
   Dimitrios Liakos       : Extrapolation schemes; Compound Job, initial MDCI parallelization
   Dimitrios Manganas     : Further ROCIS development; embedding schemes
   Dimitrios Pantazis     : SARC Basis sets
   Anastasios Papadopoulos: AUTO-CI, single reference methods and gradients
   Taras Petrenko         : DFT Hessian,TD-DFT gradient, ASA, ECA, R-Raman, ABS, FL, XAS/XES, NRVS
   Peter Pinski           : DLPNO-MP2, DLPNO-MP2 Gradient
   Christoph Reimann      : Effective Core Potentials
   Marius Retegan         : Local ZFS, SOC
   Christoph Riplinger    : Optimizer, TS searches, QM/MM, DLPNO-CCSD(T), (RO)-DLPNO pert. Triples
   Tobias Risthaus        : Range-separated hybrids, TD-DFT gradient, RPA, STAB
   Michael Roemelt        : Original ROCIS implementation
   Masaaki Saitow         : Open-shell DLPNO-CCSD energy and density
   Barbara Sandhoefer     : DKH picture change effects
   Avijit Sen             : IP-ROCIS
   Kantharuban Sivalingam : CASSCF convergence, NEVPT2, FIC-MRCI
   Bernardo de Souza      : ESD, SOC TD-DFT
   Georgi Stoychev        : AutoAux, RI-MP2 NMR, DLPNO-MP2 response
   Willem Van den Heuvel  : Paramagnetic NMR
   Boris Wezisla          : Elementary symmetry handling
   Frank Wennmohs         : Technical directorship


 We gratefully acknowledge several colleagues who have allowed us to
 interface, adapt or use parts of their codes:
   Stefan Grimme, W. Hujo, H. Kruse, P. Pracht,  : VdW corrections, initial TS optimization,
                  C. Bannwarth, S. Ehlert          DFT functionals, gCP, sTDA/sTD-DF
   Ed Valeev, F. Pavosevic, A. Kumar             : LibInt (2-el integral package), F12 methods
   Garnet Chan, S. Sharma, J. Yang, R. Olivares  : DMRG
   Ulf Ekstrom                                   : XCFun DFT Library
   Mihaly Kallay                                 : mrcc  (arbitrary order and MRCC methods)
   Jiri Pittner, Ondrej Demel                    : Mk-CCSD
   Frank Weinhold                                : gennbo (NPA and NBO analysis)
   Christopher J. Cramer and Donald G. Truhlar   : smd solvation model
   Lars Goerigk                                  : TD-DFT with DH, B97 family of functionals
   V. Asgeirsson, H. Jonsson                     : NEB implementation
   FAccTs GmbH                                   : IRC, NEB, NEB-TS, DLPNO-Multilevel, CI-OPT
                                                   MM, QMMM, 2- and 3-layer-ONIOM, Crystal-QMMM,
                                                   LR-CPCM, SF, NACMEs, symmetry and pop. for TD-DFT,
                                                   nearIR, NL-DFT gradient (VV10), updates on ESD,
                                                   ML-optimized integration grids
   S Lehtola, MJT Oliveira, MAL Marques          : LibXC Library
   Liviu Ungur et al                             : ANISO software


 Your calculation uses the libint2 library for the computation of 2-el integrals
 For citations please refer to: http://libint.valeyev.net

 Your ORCA version has been built with support for libXC version: 5.1.0
 For citations please refer to: https://tddft.org/programs/libxc/

 This ORCA versions uses:
   CBLAS   interface :  Fast vector & matrix operations
   LAPACKE interface :  Fast linear algebra routines
   SCALAPACK package :  Parallel linear algebra routines
   Shared memory     :  Shared parallel matrices
   BLAS/LAPACK       :  OpenBLAS 0.3.15  USE64BITINT DYNAMIC_ARCH NO_AFFINITY Zen SINGLE_THREADED
        Core in use  :  Zen
   Copyright (c) 2011-2014, The OpenBLAS Project


================================================================================

----- Orbital basis set information -----
Your calculation utilizes the basis: def2-SVP
   F. Weigend and R. Ahlrichs, Phys. Chem. Chem. Phys. 7, 3297 (2005).

================================================================================
                                        WARNINGS
                       Please study these warnings very carefully!
================================================================================


INFO   : the flag for use of the SHARK integral package has been found!

================================================================================
                                       INPUT FILE
================================================================================
NAME = ./ZINC000000000120/ZINC000000000120.inp
|  1> !RHF def2-SVP TightSCF PAL16 
|  2> *xyz 0 1
|  3> C -0.280927025848401 -2.8699584374266878 -0.05280762485918353
|  4> C -0.252049895350288 -1.324899022811591 -0.09774507894332769
|  5> C 1.1268365887514529 -0.8852087948021118 0.32261783481892703
|  6> N 2.0724284646399487 -0.2930494136737733 -0.37050171485357564
|  7> C 3.089476226275616 -0.15859898711537335 0.5527363228778355
|  8> C 4.367389857496188 0.4622523204504073 0.21915069098983336
|  9> C 5.383746121377645 0.5906794333401939 1.1781586472381922
| 10> C 6.603551381130745 1.187484740642368 0.8473713029519414
| 11> C 6.8209231119313 1.6621030139019337 -0.4445690100983903
| 12> C 5.821046901733224 1.5413241724245912 -1.4073501859031194
| 13> C 4.601126232822685 0.9447962121005804 -1.0775464722099288
| 14> N 2.7832757914510395 -0.6477337181756707 1.7662565771177776
| 15> O 1.4888114689426064 -1.1325936375027736 1.6155307924189755
| 16> C -0.5357304771454777 -0.8418645223300941 -1.5359223527448311
| 17> C -1.9831009116014071 -1.0699057599873654 -1.98269398639224
| 18> C -2.9817493559555786 -1.1712721517598703 -0.8278003576596511
| 19> N -2.6407037574713637 -0.35205067539055274 0.3357335128943014
| 20> C -2.7740076897858907 1.0958981475218097 0.10554918645518972
| 21> C -4.208209757935747 1.5624303918270128 -0.17756525334201895
| 22> C -5.185143611446581 1.166308703061017 0.9302870269390335
| 23> C -6.524013873967027 1.70727407126404 0.6613131315793874
| 24> N -7.579474980310191 2.1382085782181117 0.4446621266686676
| 25> C -1.3023552104544123 -0.6976798190482757 0.8757666421820216
| 26> H -1.233447025877693 -3.2921702253168266 -0.37925515262730947
| 27> H 0.49816358486907736 -3.2938429051747016 -0.6986302715281569
| 28> H -0.09252538966754771 -3.24178022160105 0.961608048331724
| 29> H 5.235544206390484 0.22672956001993574 2.1931228088480474
| 30> H 7.382833624979452 1.2807004280683234 1.599662609758467
| 31> H 7.770053777025082 2.125977817630589 -0.7010784460548439
| 32> H 5.9889177212670255 1.910632759606664 -2.415874785637311
| 33> H 3.83164563271255 0.8585019230313718 -1.8425096713158666
| 34> H -0.3234378981248016 0.23423166486676905 -1.606504478673987
| 35> H 0.14522433965028256 -1.3164879448369422 -2.254939016072066
| 36> H -2.040319602023993 -1.9915121730913419 -2.574794733260945
| 37> H -2.2733071952642705 -0.2545475072236641 -2.6568332321692028
| 38> H -3.061154806540473 -2.213655383092683 -0.4981668000367045
| 39> H -3.9887406105864507 -0.946425388313874 -1.1965201301077844
| 40> H -2.1219014366058926 1.4346386799474042 -0.7073383478707066
| 41> H -2.446383150021624 1.6317997692514195 1.00636927680085
| 42> H -4.5555068482007615 1.1817258509451176 -1.1456198635132577
| 43> H -4.196520212215959 2.656285787059238 -0.27708478767511646
| 44> H -4.827393628379049 1.543263999106937 1.8953588129323342
| 45> H -5.251520136499241 0.07595271549827569 1.012930456209924
| 46> H -0.875667408895776 0.18253331514329366 1.3767623926215797
| 47> H -1.4757031372772538 -1.4064973662533509 1.697346601571304
| 48> *
| 49> 
| 50>                          ****END OF INPUT****
================================================================================

                       ****************************
                       * Single Point Calculation *
                       ****************************

---------------------------------
CARTESIAN COORDINATES (ANGSTROEM)
---------------------------------
  C     -0.280927   -2.869958   -0.052808
  C     -0.252050   -1.324899   -0.097745
  C      1.126837   -0.885209    0.322618
  N      2.072428   -0.293049   -0.370502
  C      3.089476   -0.158599    0.552736
  C      4.367390    0.462252    0.219151
  C      5.383746    0.590679    1.178159
  C      6.603551    1.187485    0.847371
  C      6.820923    1.662103   -0.444569
  C      5.821047    1.541324   -1.407350
  C      4.601126    0.944796   -1.077546
  N      2.783276   -0.647734    1.766257
  O      1.488811   -1.132594    1.615531
  C     -0.535730   -0.841865   -1.535922
  C     -1.983101   -1.069906   -1.982694
  C     -2.981749   -1.171272   -0.827800
  N     -2.640704   -0.352051    0.335734
  C     -2.774008    1.095898    0.105549
  C     -4.208210    1.562430   -0.177565
  C     -5.185144    1.166309    0.930287
  C     -6.524014    1.707274    0.661313
  N     -7.579475    2.138209    0.444662
  C     -1.302355   -0.697680    0.875767
  H     -1.233447   -3.292170   -0.379255
  H      0.498164   -3.293843   -0.698630
  H     -0.092525   -3.241780    0.961608
  H      5.235544    0.226730    2.193123
  H      7.382834    1.280700    1.599663
  H      7.770054    2.125978   -0.701078
  H      5.988918    1.910633   -2.415875
  H      3.831646    0.858502   -1.842510
  H     -0.323438    0.234232   -1.606504
  H      0.145224   -1.316488   -2.254939
  H     -2.040320   -1.991512   -2.574795
  H     -2.273307   -0.254548   -2.656833
  H     -3.061155   -2.213655   -0.498167
  H     -3.988741   -0.946425   -1.196520
  H     -2.121901    1.434639   -0.707338
  H     -2.446383    1.631800    1.006369
  H     -4.555507    1.181726   -1.145620
  H     -4.196520    2.656286   -0.277085
  H     -4.827394    1.543264    1.895359
  H     -5.251520    0.075953    1.012930
  H     -0.875667    0.182533    1.376762
  H     -1.475703   -1.406497    1.697347

----------------------------
CARTESIAN COORDINATES (A.U.)
----------------------------
  NO LB      ZA    FRAG     MASS         X           Y           Z
   0 C     6.0000    0    12.011   -0.530875   -5.423435   -0.099792
   1 C     6.0000    0    12.011   -0.476305   -2.503696   -0.184711
   2 C     6.0000    0    12.011    2.129413   -1.672802    0.609659
   3 N     7.0000    0    14.007    3.916322   -0.553783   -0.700147
   4 C     6.0000    0    12.011    5.838264   -0.299709    1.044520
   5 C     6.0000    0    12.011    8.253171    0.873530    0.414135
   6 C     6.0000    0    12.011   10.173806    1.116222    2.226397
   7 C     6.0000    0    12.011   12.478904    2.244021    1.601300
   8 C     6.0000    0    12.011   12.889677    3.140920   -0.840114
   9 C     6.0000    0    12.011   11.000184    2.912681   -2.659506
  10 C     6.0000    0    12.011    8.694868    1.785406   -2.036268
  11 N     7.0000    0    14.007    5.259629   -1.224039    3.337741
  12 O     8.0000    0    15.999    2.813446   -2.140292    3.052911
  13 C     6.0000    0    12.011   -1.012384   -1.590893   -2.902473
  14 C     6.0000    0    12.011   -3.747518   -2.021829   -3.746749
  15 C     6.0000    0    12.011   -5.634690   -2.213384   -1.564316
  16 N     7.0000    0    14.007   -4.990207   -0.665279    0.634444
  17 C     6.0000    0    12.011   -5.242115    2.070947    0.199459
  18 C     6.0000    0    12.011   -7.952364    2.952566   -0.335550
  19 C     6.0000    0    12.011   -9.798501    2.204004    1.757988
  20 C     6.0000    0    12.011  -12.328600    3.226280    1.249701
  21 N     7.0000    0    14.007  -14.323132    4.040629    0.840290
  22 C     6.0000    0    12.011   -2.461095   -1.318424    1.654959
  23 H     1.0000    0     1.008   -2.330877   -6.221300   -0.716688
  24 H     1.0000    0     1.008    0.941393   -6.224461   -1.320220
  25 H     1.0000    0     1.008   -0.174848   -6.126077    1.817176
  26 H     1.0000    0     1.008    9.893745    0.428457    4.144401
  27 H     1.0000    0     1.008   13.951534    2.420173    3.022924
  28 H     1.0000    0     1.008   14.683274    4.017516   -1.324846
  29 H     1.0000    0     1.008   11.317414    3.610573   -4.565342
  30 H     1.0000    0     1.008    7.240761    1.622334   -3.481839
  31 H     1.0000    0     1.008   -0.611209    0.442634   -3.035853
  32 H     1.0000    0     1.008    0.274434   -2.487802   -4.261217
  33 H     1.0000    0     1.008   -3.855645   -3.763413   -4.865657
  34 H     1.0000    0     1.008   -4.295928   -0.481025   -5.020687
  35 H     1.0000    0     1.008   -5.784744   -4.183202   -0.941399
  36 H     1.0000    0     1.008   -7.537627   -1.788485   -2.261095
  37 H     1.0000    0     1.008   -4.009813    2.711074   -1.336676
  38 H     1.0000    0     1.008   -4.622994    3.083655    1.901762
  39 H     1.0000    0     1.008   -8.608660    2.233138   -2.164908
  40 H     1.0000    0     1.008   -7.930274    5.019653   -0.523614
  41 H     1.0000    0     1.008   -9.122452    2.916346    3.581709
  42 H     1.0000    0     1.008   -9.923935    0.143530    1.914161
  43 H     1.0000    0     1.008   -1.654772    0.344938    2.601704
  44 H     1.0000    0     1.008   -2.788675   -2.657895    3.207520

--------------------------------
INTERNAL COORDINATES (ANGSTROEM)
--------------------------------
 C      0   0   0     0.000000000000     0.00000000     0.00000000
 C      1   0   0     1.545982489596     0.00000000     0.00000000
 C      2   1   0     1.507103318261   107.49083878     0.00000000
 N      3   2   1     1.313473044468   130.01682639   113.05829530
 C      4   3   2     1.380156346565   102.79323060   180.31412366
 C      5   4   3     1.459383078142   122.26345475   180.09047439
 C      6   5   4     1.403271120847   121.12694532   179.78386010
 C      7   6   5     1.397684411334   120.62636459   180.02098022
 C      8   7   6     1.393421238229   120.06734600     0.00000000
 C      9   8   7     1.393300956991   119.94752037     0.00000000
 C     10   9   8     1.397434268740   120.02601640     0.00000000
 N      5   4   3     1.343742125137   113.62381179     0.00000000
 O      3   2   1     1.365228548712   116.99182452   293.58788491
 C      2   1   3     1.543421806255   109.65942936   119.17759541
 C     14   2   1     1.531825340318   113.50614089    70.22727011
 C     15  14   2     1.530148082533   113.97854860    23.87864803
 N     16  15  14     1.463300036054   114.26417838    32.50678775
 C     17  16  15     1.472178846568   113.90374818    69.59535308
 C     18  17  16     1.534516762138   114.36187521    64.27644964
 C     19  18  17     1.529264143754   112.62246350    56.11071419
 C     20  19  18     1.468864890261   110.74668598   176.30191903
 N     21  20  19     1.160448341899   179.70738726   346.35399172
 C     17  16  15     1.484005430912   111.66354554   302.09744306
 H      1   2   3     1.091844829944   113.20795194   182.18850381
 H      1   2   3     1.097154097042   110.83908325   302.55926529
 H      1   2   3     1.096715903832   111.25422465    61.42207936
 H      7   6   5     1.088382086975   120.53618115     0.03356587
 H      8   7   6     1.087157849743   119.89573086   180.00986541
 H      9   8   7     1.087118182945   120.02034295   180.01291555
 H     10   9   8     1.087056260221   120.05398436   180.02446282
 H     11  10   9     1.088446505005   119.02082072   180.02794139
 H     14   2   1     1.099105536201   109.31427099   190.89766491
 H     14   2   1     1.098158375578   111.15341516   306.52656114
 H     15  14   2     1.096911871415   109.37801707   262.20790081
 H     15  14   2     1.097038053180   108.57428810   146.73124186
 H     16  15  14     1.096141555118   109.70930460   270.98249803
 H     16  15  14     1.095692349398   109.40414225   158.34202212
 H     18  17  16     1.095798273957   111.47789096   300.08444027
 H     18  17  16     1.098182690812   108.94666626   183.12669110
 H     19  18  17     1.096668110519   110.68931369   292.08925328
 H     19  18  17     1.098435436824   108.03074121   176.91131268
 H     20  19  18     1.096103963008   109.89212929    55.32514912
 H     20  19  18     1.095496215919   110.55888174   297.19338067
 H     23  17  16     1.099015188048   109.23797548   152.69675560
 H     23  17  16     1.098847327261   106.26290359   264.00183053

---------------------------
INTERNAL COORDINATES (A.U.)
---------------------------
 C      0   0   0     0.000000000000     0.00000000     0.00000000
 C      1   0   0     2.921483513173     0.00000000     0.00000000
 C      2   1   0     2.848012527037   107.49083878     0.00000000
 N      3   2   1     2.482104338331   130.01682639   113.05829530
 C      4   3   2     2.608117517001   102.79323060   180.31412366
 C      5   4   3     2.757834342168   122.26345475   180.09047439
 C      6   5   4     2.651798110042   121.12694532   179.78386010
 C      7   6   5     2.641240759072   120.62636459   180.02098022
 C      8   7   6     2.633184529442   120.06734600     0.00000000
 C      9   8   7     2.632957230844   119.94752037     0.00000000
 C     10   9   8     2.640768058075   120.02601640     0.00000000
 N      5   4   3     2.539304611122   113.62381179     0.00000000
 O      3   2   1     2.579908067276   116.99182452   293.58788491
 C      2   1   3     2.916644522943   109.65942936   119.17759541
 C     14   2   1     2.894730378202   113.50614089    70.22727011
 C     15  14   2     2.891560820332   113.97854860    23.87864803
 N     16  15  14     2.765236319900   114.26417838    32.50678775
 C     17  16  15     2.782014840165   113.90374818    69.59535308
 C     18  17  16     2.899816428353   114.36187521    64.27644964
 C     19  18  17     2.889890418120   112.62246350    56.11071419
 C     20  19  18     2.775752370326   110.74668598   176.30191903
 N     21  20  19     2.192929558752   179.70738726   346.35399172
 C     17  16  15     2.804363845675   111.66354554   302.09744306
 H      1   2   3     2.063287709332   113.20795194   182.18850381
 H      1   2   3     2.073320770120   110.83908325   302.55926529
 H      1   2   3     2.072492704958   111.25422465    61.42207936
 H      7   6   5     2.056744073448   120.53618115     0.03356587
 H      8   7   6     2.054430600356   119.89573086   180.00986541
 H      9   8   7     2.054355640973   120.02034295   180.01291555
 H     10   9   8     2.054238623983   120.05398436   180.02446282
 H     11  10   9     2.056865805884   119.02082072   180.02794139
 H     14   2   1     2.077008455696   109.31427099   190.89766491
 H     14   2   1     2.075218581514   111.15341516   306.52656114
 H     15  14   2     2.072863030021   109.37801707   262.20790081
 H     15  14   2     2.073101479000   108.57428810   146.73124186
 H     16  15  14     2.071407343184   109.70930460   270.98249803
 H     16  15  14     2.070558467395   109.40414225   158.34202212
 H     18  17  16     2.070758635802   111.47789096   300.08444027
 H     18  17  16     2.075264530647   108.94666626   183.12669110
 H     19  18  17     2.072402388685   110.68931369   292.08925328
 H     19  18  17     2.075742151392   108.03074121   176.91131268
 H     20  19  18     2.071336304391   109.89212929    55.32514912
 H     20  19  18     2.070187828835   110.55888174   297.19338067
 H     23  17  16     2.076837722431   109.23797548   152.69675560
 H     23  17  16     2.076520511516   106.26290359   264.00183053

---------------------
BASIS SET INFORMATION
---------------------
There are 4 groups of distinct atoms

 Group   1 Type C   : 7s4p1d contracted to 3s2p1d pattern {511/31/1}
 Group   2 Type N   : 7s4p1d contracted to 3s2p1d pattern {511/31/1}
 Group   3 Type O   : 7s4p1d contracted to 3s2p1d pattern {511/31/1}
 Group   4 Type H   : 4s1p contracted to 2s1p pattern {31/1}

Atom   0C    basis set group =>   1
Atom   1C    basis set group =>   1
Atom   2C    basis set group =>   1
Atom   3N    basis set group =>   2
Atom   4C    basis set group =>   1
Atom   5C    basis set group =>   1
Atom   6C    basis set group =>   1
Atom   7C    basis set group =>   1
Atom   8C    basis set group =>   1
Atom   9C    basis set group =>   1
Atom  10C    basis set group =>   1
Atom  11N    basis set group =>   2
Atom  12O    basis set group =>   3
Atom  13C    basis set group =>   1
Atom  14C    basis set group =>   1
Atom  15C    basis set group =>   1
Atom  16N    basis set group =>   2
Atom  17C    basis set group =>   1
Atom  18C    basis set group =>   1
Atom  19C    basis set group =>   1
Atom  20C    basis set group =>   1
Atom  21N    basis set group =>   2
Atom  22C    basis set group =>   1
Atom  23H    basis set group =>   4
Atom  24H    basis set group =>   4
Atom  25H    basis set group =>   4
Atom  26H    basis set group =>   4
Atom  27H    basis set group =>   4
Atom  28H    basis set group =>   4
Atom  29H    basis set group =>   4
Atom  30H    basis set group =>   4
Atom  31H    basis set group =>   4
Atom  32H    basis set group =>   4
Atom  33H    basis set group =>   4
Atom  34H    basis set group =>   4
Atom  35H    basis set group =>   4
Atom  36H    basis set group =>   4
Atom  37H    basis set group =>   4
Atom  38H    basis set group =>   4
Atom  39H    basis set group =>   4
Atom  40H    basis set group =>   4
Atom  41H    basis set group =>   4
Atom  42H    basis set group =>   4
Atom  43H    basis set group =>   4
Atom  44H    basis set group =>   4


           ************************************************************
           *        Program running with 16 parallel MPI-processes    *
           *              working on a common directory               *
           ************************************************************
------------------------------------------------------------------------------
                           ORCA GTO INTEGRAL CALCULATION
------------------------------------------------------------------------------
------------------------------------------------------------------------------
                   ___                                                        
                  /   \      - P O W E R E D   B Y -                         
                 /     \                                                     
                 |  |  |   _    _      __       _____    __    __             
                 |  |  |  | |  | |    /  \     |  _  \  |  |  /  |          
                  \  \/   | |  | |   /    \    | | | |  |  | /  /          
                 / \  \   | |__| |  /  /\  \   | |_| |  |  |/  /          
                |  |  |   |  __  | /  /__\  \  |    /   |      \           
                |  |  |   | |  | | |   __   |  |    \   |  |\   \          
                \     /   | |  | | |  |  |  |  | |\  \  |  | \   \       
                 \___/    |_|  |_| |__|  |__|  |_| \__\ |__|  \__/        
                                                                              
                      - O R C A' S   B I G   F R I E N D -                    
                                      &                                       
                       - I N T E G R A L  F E E D E R -                       
                                                                              
 v1 FN, 2020, v2 2021                                                         
------------------------------------------------------------------------------


Reading SHARK input file ./ZINC000000000120/ZINC000000000120.SHARKINP.tmp ... ok
----------------------
SHARK INTEGRAL PACKAGE
----------------------

Number of atoms                             ...     45
Number of basis functions                   ...    432
Number of shells                            ...    204
Maximum angular momentum                    ...      2
Integral batch strategy                     ... SHARK/LIBINT Hybrid
RI-J (if used) integral strategy            ... SPLIT-RIJ (Revised 2003 algorithm where possible)
Printlevel                                  ...      1
Contraction scheme used                     ... SEGMENTED contraction
Coulomb Range Separation                    ... NOT USED
Exchange Range Separation                   ... NOT USED
Finite Nucleus Model                        ... NOT USED
Auxiliary Coulomb fitting basis             ... NOT available
Auxiliary J/K fitting basis                 ... NOT available
Auxiliary Correlation fitting basis         ... NOT available
Auxiliary 'external' fitting basis          ... NOT available
Integral threshold                          ...     2.500000e-11
Primitive cut-off                           ...     2.500000e-12
Primitive pair pre-selection threshold      ...     2.500000e-12

Calculating pre-screening integrals         ... done (  0.0 sec) Dimension = 204
Organizing shell pair data                  ... done (  0.1 sec)
Shell pair information
Total number of shell pairs                 ...     20910
Shell pairs after pre-screening             ...     13808
Total number of primitive shell pairs       ...     75056
Primitive shell pairs kept                  ...     32045
          la=0 lb=0:   4448 shell pairs
          la=1 lb=0:   5191 shell pairs
          la=1 lb=1:   1569 shell pairs
          la=2 lb=0:   1554 shell pairs
          la=2 lb=1:    908 shell pairs
          la=2 lb=2:    138 shell pairs

Calculating one electron integrals          ... done (  0.0 sec)
Calculating Nuclear repulsion               ... done (  0.0 sec) ENN=   1811.667035960990 Eh

SHARK setup successfully completed in   0.2 seconds

Maximum memory used throughout the entire GTOINT-calculation: 21.0 MB


           ************************************************************
           *        Program running with 16 parallel MPI-processes    *
           *              working on a common directory               *
           ************************************************************
-------------------------------------------------------------------------------
                                 ORCA SCF
-------------------------------------------------------------------------------

------------
SCF SETTINGS
------------
Hamiltonian:
 Ab initio Hamiltonian  Method          .... Hartree-Fock(GTOs)


General Settings:
 Integral files         IntName         .... ./ZINC000000000120/ZINC000000000120
 Hartree-Fock type      HFTyp           .... RHF
 Total Charge           Charge          ....    0
 Multiplicity           Mult            ....    1
 Number of Electrons    NEL             ....  166
 Basis Dimension        Dim             ....  432
 Nuclear Repulsion      ENuc            ....   1811.6670359610 Eh

Convergence Acceleration:
 DIIS                   CNVDIIS         .... on
   Start iteration      DIISMaxIt       ....    12
   Startup error        DIISStart       ....  0.200000
   # of expansion vecs  DIISMaxEq       ....     5
   Bias factor          DIISBfac        ....   1.050
   Max. coefficient     DIISMaxC        ....  10.000
 Trust-Rad. Augm. Hess. CNVTRAH         .... auto
   Auto Start mean grad. ratio tolernc. ....  1.125000
   Auto Start start iteration           ....    20
   Auto Start num. interpolation iter.  ....    10
   Max. Number of Micro iterations      ....    16
   Max. Number of Macro iterations      .... Maxiter - #DIIS iter
   Number of Davidson start vectors     ....     2
   Converg. threshold I  (grad. norm)   ....   1.000e-05
   Converg. threshold II (energy diff.) ....   1.000e-08
   Grad. Scal. Fac. for Micro threshold ....   0.100
   Minimum threshold for Micro iter.    ....   0.010
   NR start threshold (gradient norm)   ....   0.001
   Initial trust radius                 ....   0.400
   Minimum AH scaling param. (alpha)    ....   1.000
   Maximum AH scaling param. (alpha)    .... 1000.000
   Orbital update algorithm             .... Taylor
   White noise on init. David. guess    .... on
   Maximum white noise                  ....   0.010
   Quad. conv. algorithm                .... NR
 SOSCF                  CNVSOSCF        .... on
   Start iteration      SOSCFMaxIt      ....   150
   Startup grad/error   SOSCFStart      ....  0.003300
 Level Shifting         CNVShift        .... on
   Level shift para.    LevelShift      ....    0.2500
   Turn off err/grad.   ShiftErr        ....    0.0010
 Zerner damping         CNVZerner       .... off
 Static damping         CNVDamp         .... on
   Fraction old density DampFac         ....    0.7000
   Max. Damping (<1)    DampMax         ....    0.9800
   Min. Damping (>=0)   DampMin         ....    0.0000
   Turn off err/grad.   DampErr         ....    0.1000
 Fernandez-Rico         CNVRico         .... off

SCF Procedure:
 Maximum # iterations   MaxIter         ....   125
 SCF integral mode      SCFMode         .... Direct
   Integral package                     .... SHARK and LIBINT hybrid scheme
 Reset frequency        DirectResetFreq ....    20
 Integral Threshold     Thresh          ....  2.500e-11 Eh
 Primitive CutOff       TCut            ....  2.500e-12 Eh

Convergence Tolerance:
 Convergence Check Mode ConvCheckMode   .... Total+1el-Energy
 Convergence forced     ConvForced      .... 0
 Energy Change          TolE            ....  1.000e-08 Eh
 1-El. energy change                    ....  1.000e-05 Eh
 Orbital Gradient       TolG            ....  1.000e-05
 Orbital Rotation angle TolX            ....  1.000e-05
 DIIS Error             TolErr          ....  5.000e-07


Diagonalization of the overlap matrix:
Smallest eigenvalue                        ... 2.986e-04
Time for diagonalization                   ...    0.023 sec
Threshold for overlap eigenvalues          ... 1.000e-08
Number of eigenvalues below threshold      ... 0
Time for construction of square roots      ...    0.013 sec
Total time needed                          ...    0.037 sec

Time for model grid setup =    0.192 sec

------------------------------
INITIAL GUESS: MODEL POTENTIAL
------------------------------
Loading Hartree-Fock densities                     ... done
Calculating cut-offs                               ... done
Initializing the effective Hamiltonian             ... done
Setting up the integral package (SHARK)            ... done
Starting the Coulomb interaction                   ... done (   0.1 sec)
Reading the grid                                   ... done
Mapping shells                                     ... done
Starting the XC term evaluation                    ... done (   0.0 sec)
Transforming the Hamiltonian                       ... done (   0.0 sec)
Diagonalizing the Hamiltonian                      ... done (   0.0 sec)
Back transforming the eigenvectors                 ... done (   0.0 sec)
Now organizing SCF variables                       ... done
                      ------------------
                      INITIAL GUESS DONE (   0.4 sec)
                      ------------------
--------------
SCF ITERATIONS
--------------
ITER       Energy         Delta-E        Max-DP      RMS-DP      [F,P]     Damp
               ***  Starting incremental Fock matrix formation  ***
  0   -985.5221321356   0.000000000000 0.06670995  0.00166471  0.2300826 0.7000
  1   -985.7866718186  -0.264539683044 0.05066461  0.00129755  0.1425887 0.7000
                               ***Turning on DIIS***
  2   -985.9484229950  -0.161751176387 0.12686818  0.00299542  0.0810098 0.0000
  3   -985.0049185206   0.943504474450 0.04833209  0.00067146  0.0467474 0.0000
  4   -986.3759932494  -1.371074728840 0.01710515  0.00024643  0.0124579 0.0000
  5   -986.3080728961   0.067920353317 0.00748491  0.00011251  0.0054635 0.0000
                      *** Initiating the SOSCF procedure ***
                           *** Shutting down DIIS ***
                      *** Re-Reading the Fockian *** 
                      *** Removing any level shift *** 
ITER      Energy       Delta-E        Grad      Rot      Max-DP    RMS-DP
  6   -986.28288033   0.0251925701  0.001734  0.001734  0.003311  0.000049
               *** Restarting incremental Fock matrix formation ***
  7   -986.29165520  -0.0087748726  0.000842  0.002058  0.001279  0.000024
  8   -986.29168212  -0.0000269195  0.000430  0.002671  0.001447  0.000029
  9   -986.29169455  -0.0000124307  0.000219  0.000413  0.000477  0.000006
 10   -986.29169580  -0.0000012494  0.000095  0.000142  0.000173  0.000003
 11   -986.29169616  -0.0000003632  0.000042  0.000147  0.000087  0.000002
 12   -986.29169624  -0.0000000757  0.000023  0.000098  0.000044  0.000001
 13   -986.29169625  -0.0000000084  0.000005  0.000020  0.000022  0.000000
                  ***Gradient check signals convergence***
              ***Rediagonalizing the Fockian in SOSCF/NRSCF***

               *****************************************************
               *                     SUCCESS                       *
               *           SCF CONVERGED AFTER  14 CYCLES          *
               *****************************************************


----------------
TOTAL SCF ENERGY
----------------

Total Energy       :         -986.29169625 Eh          -26838.36149 eV

Components:
Nuclear Repulsion  :         1811.66703596 Eh           49297.96631 eV
Electronic Energy  :        -2797.95873221 Eh          -76136.32780 eV
One Electron Energy:        -4938.48567659 Eh         -134383.02716 eV
Two Electron Energy:         2140.52694438 Eh           58246.69936 eV

Virial components:
Potential Energy   :        -1967.44668147 Eh          -53536.94597 eV
Kinetic Energy     :          981.15498522 Eh           26698.58448 eV
Virial Ratio       :            2.00523537


---------------
SCF CONVERGENCE
---------------

  Last Energy change         ...   -3.4702e-09  Tolerance :   1.0000e-08
  Last MAX-Density change    ...    1.0992e-05  Tolerance :   1.0000e-07
  Last RMS-Density change    ...    1.5854e-07  Tolerance :   5.0000e-09
  Last Orbital Gradient      ...    1.3396e-06  Tolerance :   1.0000e-05
  Last Orbital Rotation      ...    5.3106e-06  Tolerance :   1.0000e-05

             **** THE GBW FILE WAS UPDATED (./ZINC000000000120/ZINC000000000120.gbw) ****
             **** DENSITY ./ZINC000000000120/ZINC000000000120.scfp WAS UPDATED ****
             **** ENERGY FILE WAS UPDATED (./ZINC000000000120/ZINC000000000120.en.tmp) ****
             **** THE GBW FILE WAS UPDATED (./ZINC000000000120/ZINC000000000120.gbw) ****
             **** DENSITY ./ZINC000000000120/ZINC000000000120.scfp WAS UPDATED ****
----------------
ORBITAL ENERGIES
----------------

  NO   OCC          E(Eh)            E(eV) 
   0   2.0000     -20.657992      -562.1325 
   1   2.0000     -15.625464      -425.1905 
   2   2.0000     -15.583603      -424.0514 
   3   2.0000     -15.568667      -423.6450 
   4   2.0000     -15.565975      -423.5717 
   5   2.0000     -11.373541      -309.4898 
   6   2.0000     -11.329659      -308.2957 
   7   2.0000     -11.281890      -306.9958 
   8   2.0000     -11.280797      -306.9661 
   9   2.0000     -11.277632      -306.8800 
  10   2.0000     -11.276895      -306.8599 
  11   2.0000     -11.275117      -306.8115 
  12   2.0000     -11.268844      -306.6408 
  13   2.0000     -11.262298      -306.4627 
  14   2.0000     -11.256350      -306.3009 
  15   2.0000     -11.255609      -306.2807 
  16   2.0000     -11.255428      -306.2758 
  17   2.0000     -11.253871      -306.2334 
  18   2.0000     -11.248859      -306.0970 
  19   2.0000     -11.248724      -306.0934 
  20   2.0000     -11.247299      -306.0546 
  21   2.0000     -11.244827      -305.9873 
  22   2.0000     -11.239002      -305.8288 
  23   2.0000      -1.507121       -41.0109 
  24   2.0000      -1.251557       -34.0566 
  25   2.0000      -1.239841       -33.7378 
  26   2.0000      -1.201061       -32.6825 
  27   2.0000      -1.173297       -31.9270 
  28   2.0000      -1.146878       -31.2081 
  29   2.0000      -1.101746       -29.9800 
  30   2.0000      -1.076243       -29.2861 
  31   2.0000      -1.042283       -28.3620 
  32   2.0000      -1.027852       -27.9693 
  33   2.0000      -1.015261       -27.6267 
  34   2.0000      -0.973752       -26.4971 
  35   2.0000      -0.952117       -25.9084 
  36   2.0000      -0.893279       -24.3074 
  37   2.0000      -0.890793       -24.2397 
  38   2.0000      -0.874323       -23.7915 
  39   2.0000      -0.846391       -23.0315 
  40   2.0000      -0.826357       -22.4863 
  41   2.0000      -0.804619       -21.8948 
  42   2.0000      -0.787958       -21.4414 
  43   2.0000      -0.747618       -20.3437 
  44   2.0000      -0.723778       -19.6950 
  45   2.0000      -0.708696       -19.2846 
  46   2.0000      -0.700281       -19.0556 
  47   2.0000      -0.691608       -18.8196 
  48   2.0000      -0.679764       -18.4973 
  49   2.0000      -0.667767       -18.1709 
  50   2.0000      -0.655704       -17.8426 
  51   2.0000      -0.647643       -17.6233 
  52   2.0000      -0.640678       -17.4337 
  53   2.0000      -0.632401       -17.2085 
  54   2.0000      -0.612243       -16.6600 
  55   2.0000      -0.605704       -16.4820 
  56   2.0000      -0.598678       -16.2909 
  57   2.0000      -0.597616       -16.2620 
  58   2.0000      -0.587581       -15.9889 
  59   2.0000      -0.577001       -15.7010 
  60   2.0000      -0.570510       -15.5244 
  61   2.0000      -0.558757       -15.2045 
  62   2.0000      -0.548520       -14.9260 
  63   2.0000      -0.543595       -14.7920 
  64   2.0000      -0.538688       -14.6584 
  65   2.0000      -0.531619       -14.4661 
  66   2.0000      -0.531156       -14.4535 
  67   2.0000      -0.523714       -14.2510 
  68   2.0000      -0.516120       -14.0443 
  69   2.0000      -0.511156       -13.9093 
  70   2.0000      -0.509865       -13.8741 
  71   2.0000      -0.501364       -13.6428 
  72   2.0000      -0.492102       -13.3908 
  73   2.0000      -0.479656       -13.0521 
  74   2.0000      -0.475368       -12.9354 
  75   2.0000      -0.467205       -12.7133 
  76   2.0000      -0.462206       -12.5773 
  77   2.0000      -0.454500       -12.3676 
  78   2.0000      -0.453091       -12.3292 
  79   2.0000      -0.411943       -11.2095 
  80   2.0000      -0.365524        -9.9464 
  81   2.0000      -0.348145        -9.4735 
  82   2.0000      -0.335278        -9.1234 
  83   0.0000       0.074533         2.0281 
  84   0.0000       0.120118         3.2686 
  85   0.0000       0.141376         3.8470 
  86   0.0000       0.146421         3.9843 
  87   0.0000       0.171525         4.6674 
  88   0.0000       0.178539         4.8583 
  89   0.0000       0.182405         4.9635 
  90   0.0000       0.185075         5.0361 
  91   0.0000       0.197412         5.3718 
  92   0.0000       0.209059         5.6888 
  93   0.0000       0.212753         5.7893 
  94   0.0000       0.215294         5.8584 
  95   0.0000       0.220159         5.9908 
  96   0.0000       0.221542         6.0285 
  97   0.0000       0.227916         6.2019 
  98   0.0000       0.232862         6.3365 
  99   0.0000       0.235552         6.4097 
 100   0.0000       0.244074         6.6416 
 101   0.0000       0.250645         6.8204 
 102   0.0000       0.262977         7.1560 
 103   0.0000       0.270464         7.3597 
 104   0.0000       0.271318         7.3829 
 105   0.0000       0.278820         7.5871 
 106   0.0000       0.282400         7.6845 
 107   0.0000       0.290825         7.9137 
 108   0.0000       0.303305         8.2534 
 109   0.0000       0.307368         8.3639 
 110   0.0000       0.315797         8.5933 
 111   0.0000       0.328537         8.9399 
 112   0.0000       0.333862         9.0848 
 113   0.0000       0.339680         9.2432 
 114   0.0000       0.344083         9.3630 
 115   0.0000       0.352600         9.5947 
 116   0.0000       0.360286         9.8039 
 117   0.0000       0.367921        10.0116 
 118   0.0000       0.377719        10.2783 
 119   0.0000       0.391319        10.6483 
 120   0.0000       0.396125        10.7791 
 121   0.0000       0.411513        11.1978 
 122   0.0000       0.419916        11.4265 
 123   0.0000       0.431105        11.7310 
 124   0.0000       0.435211        11.8427 
 125   0.0000       0.446629        12.1534 
 126   0.0000       0.447700        12.1825 
 127   0.0000       0.450714        12.2645 
 128   0.0000       0.453700        12.3458 
 129   0.0000       0.471041        12.8177 
 130   0.0000       0.485953        13.2234 
 131   0.0000       0.491785        13.3822 
 132   0.0000       0.509656        13.8684 
 133   0.0000       0.518426        14.1071 
 134   0.0000       0.537313        14.6210 
 135   0.0000       0.551030        14.9943 
 136   0.0000       0.574018        15.6198 
 137   0.0000       0.582273        15.8444 
 138   0.0000       0.593373        16.1465 
 139   0.0000       0.602605        16.3977 
 140   0.0000       0.617280        16.7970 
 141   0.0000       0.624927        17.0051 
 142   0.0000       0.631004        17.1705 
 143   0.0000       0.645718        17.5709 
 144   0.0000       0.651237        17.7211 
 145   0.0000       0.666234        18.1292 
 146   0.0000       0.668560        18.1924 
 147   0.0000       0.674624        18.3574 
 148   0.0000       0.679026        18.4772 
 149   0.0000       0.688544        18.7362 
 150   0.0000       0.695866        18.9355 
 151   0.0000       0.702862        19.1259 
 152   0.0000       0.707907        19.2631 
 153   0.0000       0.717481        19.5236 
 154   0.0000       0.727057        19.7842 
 155   0.0000       0.735249        20.0071 
 156   0.0000       0.745533        20.2870 
 157   0.0000       0.757272        20.6064 
 158   0.0000       0.765669        20.8349 
 159   0.0000       0.780791        21.2464 
 160   0.0000       0.782132        21.2829 
 161   0.0000       0.798809        21.7367 
 162   0.0000       0.802579        21.8393 
 163   0.0000       0.808570        22.0023 
 164   0.0000       0.821294        22.3485 
 165   0.0000       0.824379        22.4325 
 166   0.0000       0.831418        22.6240 
 167   0.0000       0.832484        22.6531 
 168   0.0000       0.838204        22.8087 
 169   0.0000       0.845223        22.9997 
 170   0.0000       0.847509        23.0619 
 171   0.0000       0.851807        23.1788 
 172   0.0000       0.855389        23.2763 
 173   0.0000       0.859651        23.3923 
 174   0.0000       0.862769        23.4771 
 175   0.0000       0.866923        23.5902 
 176   0.0000       0.870770        23.6949 
 177   0.0000       0.875945        23.8357 
 178   0.0000       0.879228        23.9250 
 179   0.0000       0.882131        24.0040 
 180   0.0000       0.883276        24.0352 
 181   0.0000       0.890031        24.2190 
 182   0.0000       0.893810        24.3218 
 183   0.0000       0.895414        24.3654 
 184   0.0000       0.900014        24.4906 
 185   0.0000       0.903542        24.5866 
 186   0.0000       0.905250        24.6331 
 187   0.0000       0.910128        24.7658 
 188   0.0000       0.919185        25.0123 
 189   0.0000       0.920556        25.0496 
 190   0.0000       0.924226        25.1495 
 191   0.0000       0.926704        25.2169 
 192   0.0000       0.931842        25.3567 
 193   0.0000       0.936006        25.4700 
 194   0.0000       0.940785        25.6001 
 195   0.0000       0.945445        25.7269 
 196   0.0000       0.949266        25.8308 
 197   0.0000       0.952662        25.9232 
 198   0.0000       0.957691        26.0601 
 199   0.0000       0.962698        26.1963 
 200   0.0000       0.968115        26.3437 
 201   0.0000       0.972830        26.4721 
 202   0.0000       0.980143        26.6710 
 203   0.0000       0.981649        26.7120 
 204   0.0000       0.991899        26.9909 
 205   0.0000       0.998763        27.1777 
 206   0.0000       1.010602        27.4999 
 207   0.0000       1.027420        27.9575 
 208   0.0000       1.032067        28.0840 
 209   0.0000       1.047783        28.5116 
 210   0.0000       1.065695        28.9990 
 211   0.0000       1.069585        29.1049 
 212   0.0000       1.081046        29.4168 
 213   0.0000       1.095624        29.8134 
 214   0.0000       1.114374        30.3237 
 215   0.0000       1.133192        30.8357 
 216   0.0000       1.143279        31.1102 
 217   0.0000       1.152122        31.3508 
 218   0.0000       1.159259        31.5451 
 219   0.0000       1.167167        31.7602 
 220   0.0000       1.176793        32.0222 
 221   0.0000       1.194107        32.4933 
 222   0.0000       1.199268        32.6337 
 223   0.0000       1.212498        32.9938 
 224   0.0000       1.224477        33.3197 
 225   0.0000       1.237699        33.6795 
 226   0.0000       1.241500        33.7829 
 227   0.0000       1.261783        34.3349 
 228   0.0000       1.271365        34.5956 
 229   0.0000       1.297675        35.3115 
 230   0.0000       1.312645        35.7189 
 231   0.0000       1.323418        36.0120 
 232   0.0000       1.326763        36.1031 
 233   0.0000       1.345174        36.6040 
 234   0.0000       1.357831        36.9485 
 235   0.0000       1.370373        37.2897 
 236   0.0000       1.378907        37.5220 
 237   0.0000       1.405690        38.2508 
 238   0.0000       1.414522        38.4911 
 239   0.0000       1.421207        38.6730 
 240   0.0000       1.428752        38.8783 
 241   0.0000       1.448966        39.4284 
 242   0.0000       1.450793        39.4781 
 243   0.0000       1.478271        40.2258 
 244   0.0000       1.487687        40.4820 
 245   0.0000       1.489917        40.5427 
 246   0.0000       1.492662        40.6174 
 247   0.0000       1.511074        41.1184 
 248   0.0000       1.511964        41.1426 
 249   0.0000       1.528052        41.5804 
 250   0.0000       1.534103        41.7451 
 251   0.0000       1.549146        42.1544 
 252   0.0000       1.552527        42.2464 
 253   0.0000       1.569366        42.7046 
 254   0.0000       1.583215        43.0815 
 255   0.0000       1.586896        43.1816 
 256   0.0000       1.605534        43.6888 
 257   0.0000       1.609626        43.8002 
 258   0.0000       1.636230        44.5241 
 259   0.0000       1.642773        44.7021 
 260   0.0000       1.666041        45.3353 
 261   0.0000       1.673575        45.5403 
 262   0.0000       1.705798        46.4171 
 263   0.0000       1.723778        46.9064 
 264   0.0000       1.757151        47.8145 
 265   0.0000       1.760812        47.9141 
 266   0.0000       1.779292        48.4170 
 267   0.0000       1.795023        48.8451 
 268   0.0000       1.803665        49.0802 
 269   0.0000       1.825550        49.6757 
 270   0.0000       1.828937        49.7679 
 271   0.0000       1.846958        50.2583 
 272   0.0000       1.861901        50.6649 
 273   0.0000       1.873634        50.9842 
 274   0.0000       1.879237        51.1366 
 275   0.0000       1.900068        51.7035 
 276   0.0000       1.912749        52.0485 
 277   0.0000       1.920180        52.2507 
 278   0.0000       1.923378        52.3378 
 279   0.0000       1.926807        52.4311 
 280   0.0000       1.948737        53.0278 
 281   0.0000       1.968330        53.5610 
 282   0.0000       1.990829        54.1732 
 283   0.0000       1.999106        54.3984 
 284   0.0000       2.001131        54.4535 
 285   0.0000       2.020957        54.9930 
 286   0.0000       2.025002        55.1031 
 287   0.0000       2.027275        55.1649 
 288   0.0000       2.030106        55.2420 
 289   0.0000       2.034589        55.3640 
 290   0.0000       2.036062        55.4041 
 291   0.0000       2.039794        55.5056 
 292   0.0000       2.045651        55.6650 
 293   0.0000       2.054176        55.8970 
 294   0.0000       2.061897        56.1071 
 295   0.0000       2.072989        56.4089 
 296   0.0000       2.081075        56.6289 
 297   0.0000       2.084837        56.7313 
 298   0.0000       2.093548        56.9683 
 299   0.0000       2.094243        56.9873 
 300   0.0000       2.102212        57.2041 
 301   0.0000       2.104284        57.2605 
 302   0.0000       2.116733        57.5992 
 303   0.0000       2.118691        57.6525 
 304   0.0000       2.129993        57.9601 
 305   0.0000       2.132577        58.0304 
 306   0.0000       2.136062        58.1252 
 307   0.0000       2.145437        58.3803 
 308   0.0000       2.150837        58.5272 
 309   0.0000       2.164155        58.8897 
 310   0.0000       2.165902        58.9372 
 311   0.0000       2.178971        59.2928 
 312   0.0000       2.201577        59.9079 
 313   0.0000       2.210524        60.1514 
 314   0.0000       2.213558        60.2340 
 315   0.0000       2.215443        60.2853 
 316   0.0000       2.220400        60.4202 
 317   0.0000       2.230768        60.7023 
 318   0.0000       2.243508        61.0489 
 319   0.0000       2.248985        61.1980 
 320   0.0000       2.256549        61.4038 
 321   0.0000       2.259635        61.4878 
 322   0.0000       2.269061        61.7443 
 323   0.0000       2.270945        61.7956 
 324   0.0000       2.279570        62.0303 
 325   0.0000       2.284649        62.1685 
 326   0.0000       2.295101        62.4529 
 327   0.0000       2.297773        62.5256 
 328   0.0000       2.306942        62.7751 
 329   0.0000       2.327332        63.3299 
 330   0.0000       2.339131        63.6510 
 331   0.0000       2.346556        63.8530 
 332   0.0000       2.353989        64.0553 
 333   0.0000       2.355295        64.0908 
 334   0.0000       2.368921        64.4616 
 335   0.0000       2.383092        64.8472 
 336   0.0000       2.390905        65.0598 
 337   0.0000       2.401980        65.3612 
 338   0.0000       2.428331        66.0783 
 339   0.0000       2.436541        66.3016 
 340   0.0000       2.442727        66.4700 
 341   0.0000       2.452793        66.7439 
 342   0.0000       2.460501        66.9536 
 343   0.0000       2.471464        67.2520 
 344   0.0000       2.485855        67.6436 
 345   0.0000       2.489448        67.7413 
 346   0.0000       2.532772        68.9202 
 347   0.0000       2.537545        69.0501 
 348   0.0000       2.565688        69.8159 
 349   0.0000       2.577169        70.1283 
 350   0.0000       2.592912        70.5567 
 351   0.0000       2.595781        70.6348 
 352   0.0000       2.609188        70.9996 
 353   0.0000       2.611004        71.0490 
 354   0.0000       2.614660        71.1485 
 355   0.0000       2.616358        71.1947 
 356   0.0000       2.619755        71.2872 
 357   0.0000       2.630094        71.5685 
 358   0.0000       2.643834        71.9424 
 359   0.0000       2.649979        72.1096 
 360   0.0000       2.655000        72.2462 
 361   0.0000       2.679338        72.9085 
 362   0.0000       2.686285        73.0975 
 363   0.0000       2.705681        73.6253 
 364   0.0000       2.721282        74.0498 
 365   0.0000       2.734108        74.3989 
 366   0.0000       2.742750        74.6340 
 367   0.0000       2.766543        75.2815 
 368   0.0000       2.778349        75.6027 
 369   0.0000       2.816535        76.6418 
 370   0.0000       2.823470        76.8305 
 371   0.0000       2.828939        76.9793 
 372   0.0000       2.835793        77.1658 
 373   0.0000       2.844614        77.4059 
 374   0.0000       2.859449        77.8096 
 375   0.0000       2.879580        78.3574 
 376   0.0000       2.892237        78.7018 
 377   0.0000       2.907163        79.1079 
 378   0.0000       2.913069        79.2686 
 379   0.0000       2.932708        79.8031 
 380   0.0000       2.936419        79.9040 
 381   0.0000       2.946030        80.1655 
 382   0.0000       2.950869        80.2972 
 383   0.0000       2.958340        80.5005 
 384   0.0000       3.000123        81.6375 
 385   0.0000       3.013004        81.9880 
 386   0.0000       3.024237        82.2937 
 387   0.0000       3.030618        82.4673 
 388   0.0000       3.055759        83.1514 
 389   0.0000       3.071036        83.5671 
 390   0.0000       3.075937        83.7005 
 391   0.0000       3.081786        83.8597 
 392   0.0000       3.088925        84.0539 
 393   0.0000       3.126382        85.0732 
 394   0.0000       3.133493        85.2667 
 395   0.0000       3.160682        86.0065 
 396   0.0000       3.185729        86.6881 
 397   0.0000       3.206133        87.2433 
 398   0.0000       3.215928        87.5099 
 399   0.0000       3.220555        87.6357 
 400   0.0000       3.226334        87.7930 
 401   0.0000       3.243571        88.2620 
 402   0.0000       3.254425        88.5574 
 403   0.0000       3.266926        88.8976 
 404   0.0000       3.271187        89.0135 
 405   0.0000       3.292944        89.6055 
 406   0.0000       3.299307        89.7787 
 407   0.0000       3.311542        90.1116 
 408   0.0000       3.314543        90.1933 
 409   0.0000       3.343863        90.9911 
 410   0.0000       3.348116        91.1069 
 411   0.0000       3.354157        91.2713 
 412   0.0000       3.364699        91.5581 
 413   0.0000       3.372563        91.7721 
 414   0.0000       3.388300        92.2003 
 415   0.0000       3.419074        93.0377 
 416   0.0000       3.428532        93.2951 
 417   0.0000       3.445805        93.7651 
 418   0.0000       3.456248        94.0493 
 419   0.0000       3.476369        94.5968 
 420   0.0000       3.490060        94.9694 
 421   0.0000       3.507816        95.4525 
 422   0.0000       3.537658        96.2646 
 423   0.0000       3.555418        96.7478 
 424   0.0000       3.579999        97.4167 
 425   0.0000       3.589744        97.6819 
 426   0.0000       3.630342        98.7866 
 427   0.0000       3.709200       100.9325 
 428   0.0000       3.832627       104.2911 
 429   0.0000       3.892090       105.9091 
 430   0.0000       4.021128       109.4205 
 431   0.0000       4.111156       111.8702 

                    ********************************
                    * MULLIKEN POPULATION ANALYSIS *
                    ********************************

-----------------------
MULLIKEN ATOMIC CHARGES
-----------------------
   0 C :    0.069785
   1 C :   -0.616076
   2 C :    0.546521
   3 N :   -0.403318
   4 C :    0.289971
   5 C :   -0.179359
   6 C :    0.021421
   7 C :   -0.047079
   8 C :   -0.015259
   9 C :   -0.043675
  10 C :    0.015807
  11 N :   -0.086317
  12 O :   -0.404992
  13 C :    0.088065
  14 C :   -0.049085
  15 C :    0.169976
  16 N :   -0.667308
  17 C :    0.181617
  18 C :   -0.101218
  19 C :    0.057198
  20 C :   -0.132753
  21 N :   -0.137109
  22 C :    0.348507
  23 H :    0.045206
  24 H :    0.044446
  25 H :    0.060324
  26 H :    0.065875
  27 H :    0.047274
  28 H :    0.048139
  29 H :    0.045751
  30 H :    0.062939
  31 H :    0.046046
  32 H :    0.050612
  33 H :    0.037809
  34 H :    0.037310
  35 H :    0.031916
  36 H :    0.039111
  37 H :    0.025683
  38 H :    0.032808
  39 H :    0.051875
  40 H :    0.057731
  41 H :    0.078610
  42 H :    0.094982
  43 H :    0.044888
  44 H :    0.045343
Sum of atomic charges:   -0.0000000

--------------------------------
MULLIKEN REDUCED ORBITAL CHARGES
--------------------------------
  0 C s       :     3.015260  s :     3.015260
      pz      :     1.020705  p :     2.878363
      px      :     1.011296
      py      :     0.846362
      dz2     :     0.008303  d :     0.036592
      dxz     :     0.006596
      dyz     :     0.005790
      dx2y2   :     0.009628
      dxy     :     0.006275
  1 C s       :     3.395694  s :     3.395694
      pz      :     1.083230  p :     3.160624
      px      :     0.973122
      py      :     1.104272
      dz2     :     0.012925  d :     0.059758
      dxz     :     0.010970
      dyz     :     0.010692
      dx2y2   :     0.015660
      dxy     :     0.009511
  2 C s       :     3.022277  s :     3.022277
      pz      :     0.663945  p :     2.324472
      px      :     0.876662
      py      :     0.783865
      dz2     :     0.033020  d :     0.106730
      dxz     :     0.026299
      dyz     :     0.017313
      dx2y2   :     0.015880
      dxy     :     0.014217
  3 N s       :     3.609604  s :     3.609604
      pz      :     1.455030  p :     3.758978
      px      :     1.053538
      py      :     1.250410
      dz2     :     0.005093  d :     0.034737
      dxz     :     0.015062
      dyz     :     0.006708
      dx2y2   :     0.003915
      dxy     :     0.003959
  4 C s       :     2.999813  s :     2.999813
      pz      :     0.800461  p :     2.619918
      px      :     0.934118
      py      :     0.885339
      dz2     :     0.022747  d :     0.090298
      dxz     :     0.024696
      dyz     :     0.017466
      dx2y2   :     0.013285
      dxy     :     0.012103
  5 C s       :     3.046398  s :     3.046398
      pz      :     1.044971  p :     3.082958
      px      :     0.995360
      py      :     1.042628
      dz2     :     0.013496  d :     0.050002
      dxz     :     0.013685
      dyz     :     0.008205
      dx2y2   :     0.006910
      dxy     :     0.007706
  6 C s       :     3.161206  s :     3.161206
      pz      :     0.934632  p :     2.774056
      px      :     0.913580
      py      :     0.925844
      dz2     :     0.009765  d :     0.043317
      dxz     :     0.012568
      dyz     :     0.005519
      dx2y2   :     0.007643
      dxy     :     0.007821
  7 C s       :     3.131132  s :     3.131132
      pz      :     0.940565  p :     2.872548
      px      :     0.945532
      py      :     0.986451
      dz2     :     0.010927  d :     0.043399
      dxz     :     0.013101
      dyz     :     0.006705
      dx2y2   :     0.006580
      dxy     :     0.006087
  8 C s       :     3.128816  s :     3.128816
      pz      :     0.953009  p :     2.841992
      px      :     0.939671
      py      :     0.949311
      dz2     :     0.012486  d :     0.044451
      dxz     :     0.012960
      dyz     :     0.008277
      dx2y2   :     0.005165
      dxy     :     0.005564
  9 C s       :     3.129667  s :     3.129667
      pz      :     0.935724  p :     2.870636
      px      :     0.948940
      py      :     0.985972
      dz2     :     0.010326  d :     0.043373
      dxz     :     0.012668
      dyz     :     0.005542
      dx2y2   :     0.007343
      dxy     :     0.007494
 10 C s       :     3.163478  s :     3.163478
      pz      :     0.940722  p :     2.777377
      px      :     0.906564
      py      :     0.930091
      dz2     :     0.010726  d :     0.043337
      dxz     :     0.012689
      dyz     :     0.006873
      dx2y2   :     0.006925
      dxy     :     0.006124
 11 N s       :     3.644952  s :     3.644952
      pz      :     1.381659  p :     3.394440
      px      :     0.810502
      py      :     1.202279
      dz2     :     0.013348  d :     0.046926
      dxz     :     0.007602
      dyz     :     0.008059
      dx2y2   :     0.010679
      dxy     :     0.007237
 12 O s       :     3.832588  s :     3.832588
      pz      :     1.463081  p :     4.545906
      px      :     1.368787
      py      :     1.714037
      dz2     :     0.009011  d :     0.026498
      dxz     :     0.003959
      dyz     :     0.003700
      dx2y2   :     0.004523
      dxy     :     0.005304
 13 C s       :     3.021273  s :     3.021273
      pz      :     0.875211  p :     2.846083
      px      :     0.960868
      py      :     1.010005
      dz2     :     0.010864  d :     0.044578
      dxz     :     0.009869
      dyz     :     0.005932
      dx2y2   :     0.012175
      dxy     :     0.005738
 14 C s       :     3.060013  s :     3.060013
      pz      :     0.995336  p :     2.944279
      px      :     0.927529
      py      :     1.021414
      dz2     :     0.004462  d :     0.044794
      dxz     :     0.011538
      dyz     :     0.011875
      dx2y2   :     0.012331
      dxy     :     0.004587
 15 C s       :     2.998549  s :     2.998549
      pz      :     0.831493  p :     2.770390
      px      :     0.981186
      py      :     0.957712
      dz2     :     0.013312  d :     0.061085
      dxz     :     0.015234
      dyz     :     0.014449
      dx2y2   :     0.013648
      dxy     :     0.004443
 16 N s       :     3.610116  s :     3.610116
      pz      :     1.464699  p :     4.025596
      px      :     1.396262
      py      :     1.164635
      dz2     :     0.006516  d :     0.031595
      dxz     :     0.003054
      dyz     :     0.007597
      dx2y2   :     0.010703
      dxy     :     0.003725
 17 C s       :     2.991345  s :     2.991345
      pz      :     1.012307  p :     2.766226
      px      :     0.977269
      py      :     0.776650
      dz2     :     0.009273  d :     0.060811
      dxz     :     0.009952
      dyz     :     0.012901
      dx2y2   :     0.017475
      dxy     :     0.011211
 18 C s       :     3.099589  s :     3.099589
      pz      :     0.994097  p :     2.955837
      px      :     0.937054
      py      :     1.024686
      dz2     :     0.010501  d :     0.045791
      dxz     :     0.012254
      dyz     :     0.004801
      dx2y2   :     0.012684
      dxy     :     0.005552
 19 C s       :     2.978750  s :     2.978750
      pz      :     1.028586  p :     2.917760
      px      :     0.840752
      py      :     1.048422
      dz2     :     0.011178  d :     0.046293
      dxz     :     0.009459
      dyz     :     0.005404
      dx2y2   :     0.012402
      dxy     :     0.007849
 20 C s       :     3.124169  s :     3.124169
      pz      :     0.931808  p :     2.949121
      px      :     1.067804
      py      :     0.949509
      dz2     :     0.005643  d :     0.059463
      dxz     :     0.017474
      dyz     :     0.003224
      dx2y2   :     0.016858
      dxy     :     0.016264
 21 N s       :     3.634813  s :     3.634813
      pz      :     1.074183  p :     3.464272
      px      :     1.283748
      py      :     1.106340
      dz2     :     0.003846  d :     0.038024
      dxz     :     0.010507
      dyz     :     0.002116
      dx2y2   :     0.010746
      dxy     :     0.010809
 22 C s       :     2.946575  s :     2.946575
      pz      :     0.909211  p :     2.647922
      px      :     0.752238
      py      :     0.986474
      dz2     :     0.006631  d :     0.056996
      dxz     :     0.014803
      dyz     :     0.013104
      dx2y2   :     0.013246
      dxy     :     0.009212
 23 H s       :     0.929072  s :     0.929072
      pz      :     0.005504  p :     0.025722
      px      :     0.014743
      py      :     0.005475
 24 H s       :     0.930572  s :     0.930572
      pz      :     0.008848  p :     0.024982
      px      :     0.011060
      py      :     0.005075
 25 H s       :     0.914518  s :     0.914518
      pz      :     0.016254  p :     0.025158
      px      :     0.004454
      py      :     0.004451
 26 H s       :     0.908157  s :     0.908157
      pz      :     0.017617  p :     0.025968
      px      :     0.002955
      py      :     0.005396
 27 H s       :     0.927169  s :     0.927169
      pz      :     0.010540  p :     0.025557
      px      :     0.011218
      py      :     0.003799
 28 H s       :     0.926431  s :     0.926431
      pz      :     0.003467  p :     0.025430
      px      :     0.015407
      py      :     0.006556
 29 H s       :     0.928691  s :     0.928691
      pz      :     0.016924  p :     0.025558
      px      :     0.002997
      py      :     0.005638
 30 H s       :     0.911019  s :     0.911019
      pz      :     0.010884  p :     0.026042
      px      :     0.011605
      py      :     0.003552
 31 H s       :     0.929946  s :     0.929946
      pz      :     0.002999  p :     0.024008
      px      :     0.003842
      py      :     0.017167
 32 H s       :     0.925440  s :     0.925440
      pz      :     0.009074  p :     0.023948
      px      :     0.008694
      py      :     0.006180
 33 H s       :     0.937944  s :     0.937944
      pz      :     0.007525  p :     0.024247
      px      :     0.003087
      py      :     0.013634
 34 H s       :     0.938476  s :     0.938476
      pz      :     0.008674  p :     0.024214
      px      :     0.004026
      py      :     0.011514
 35 H s       :     0.944484  s :     0.944484
      pz      :     0.003739  p :     0.023600
      px      :     0.003834
      py      :     0.016027
 36 H s       :     0.936914  s :     0.936914
      pz      :     0.004465  p :     0.023976
      px      :     0.015539
      py      :     0.003971
 37 H s       :     0.951258  s :     0.951258
      pz      :     0.011552  p :     0.023059
      px      :     0.008084
      py      :     0.003422
 38 H s       :     0.943916  s :     0.943916
      pz      :     0.013278  p :     0.023276
      px      :     0.004447
      py      :     0.005550
 39 H s       :     0.924113  s :     0.924113
      pz      :     0.014543  p :     0.024012
      px      :     0.003979
      py      :     0.005490
 40 H s       :     0.918204  s :     0.918204
      pz      :     0.003472  p :     0.024065
      px      :     0.002600
      py      :     0.017993
 41 H s       :     0.896293  s :     0.896293
      pz      :     0.015164  p :     0.025097
      px      :     0.004543
      py      :     0.005390
 42 H s       :     0.879464  s :     0.879464
      pz      :     0.003394  p :     0.025554
      px      :     0.002914
      py      :     0.019246
 43 H s       :     0.930545  s :     0.930545
      pz      :     0.006968  p :     0.024567
      px      :     0.004800
      py      :     0.012799
 44 H s       :     0.931434  s :     0.931434
      pz      :     0.011348  p :     0.023222
      px      :     0.002592
      py      :     0.009283


                     *******************************
                     * LOEWDIN POPULATION ANALYSIS *
                     *******************************

----------------------
LOEWDIN ATOMIC CHARGES
----------------------
   0 C :   -0.011063
   1 C :   -0.081067
   2 C :    0.185189
   3 N :   -0.204141
   4 C :    0.068764
   5 C :   -0.069888
   6 C :    0.017831
   7 C :   -0.029790
   8 C :   -0.004538
   9 C :   -0.031321
  10 C :    0.012507
  11 N :   -0.100977
  12 O :   -0.090315
  13 C :   -0.002083
  14 C :   -0.033706
  15 C :    0.053650
  16 N :   -0.198485
  17 C :    0.063179
  18 C :   -0.014316
  19 C :   -0.025389
  20 C :   -0.003522
  21 N :   -0.120944
  22 C :    0.088960
  23 H :    0.020508
  24 H :    0.023123
  25 H :    0.025762
  26 H :    0.038283
  27 H :    0.030023
  28 H :    0.029639
  29 H :    0.029346
  30 H :    0.036041
  31 H :    0.018145
  32 H :    0.024437
  33 H :    0.018487
  34 H :    0.017472
  35 H :    0.010298
  36 H :    0.014256
  37 H :   -0.001508
  38 H :    0.013646
  39 H :    0.019228
  40 H :    0.028567
  41 H :    0.047771
  42 H :    0.050399
  43 H :    0.019832
  44 H :    0.017710

-------------------------------
LOEWDIN REDUCED ORBITAL CHARGES
-------------------------------
  0 C s       :     2.833621  s :     2.833621
      pz      :     1.061358  p :     3.094421
      px      :     1.057592
      py      :     0.975471
      dz2     :     0.018344  d :     0.083021
      dxz     :     0.014291
      dyz     :     0.013810
      dx2y2   :     0.022065
      dxy     :     0.014512
  1 C s       :     2.849969  s :     2.849969
      pz      :     1.057218  p :     3.108338
      px      :     0.999816
      py      :     1.051305
      dz2     :     0.026605  d :     0.122760
      dxz     :     0.024100
      dyz     :     0.019865
      dx2y2   :     0.033005
      dxy     :     0.019184
  2 C s       :     2.863175  s :     2.863175
      pz      :     0.872535  p :     2.734719
      px      :     1.028327
      py      :     0.833858
      dz2     :     0.070042  d :     0.216917
      dxz     :     0.055891
      dyz     :     0.035321
      dx2y2   :     0.028728
      dxy     :     0.026935
  3 N s       :     3.248208  s :     3.248208
      pz      :     1.506803  p :     3.892968
      px      :     1.130850
      py      :     1.255316
      dz2     :     0.007645  d :     0.062965
      dxz     :     0.028809
      dyz     :     0.009336
      dx2y2   :     0.007913
      dxy     :     0.009263
  4 C s       :     2.852756  s :     2.852756
      pz      :     0.990513  p :     2.891835
      px      :     1.000817
      py      :     0.900505
      dz2     :     0.050472  d :     0.186645
      dxz     :     0.054465
      dyz     :     0.034346
      dx2y2   :     0.024777
      dxy     :     0.022585
  5 C s       :     2.836461  s :     2.836461
      pz      :     1.075790  p :     3.119159
      px      :     1.026257
      py      :     1.017112
      dz2     :     0.031771  d :     0.114268
      dxz     :     0.033384
      dyz     :     0.017317
      dx2y2   :     0.015135
      dxy     :     0.016661
  6 C s       :     2.852631  s :     2.852631
      pz      :     1.039977  p :     3.032600
      px      :     1.037948
      py      :     0.954675
      dz2     :     0.023474  d :     0.096938
      dxz     :     0.029310
      dyz     :     0.011317
      dx2y2   :     0.016359
      dxy     :     0.016478
  7 C s       :     2.852050  s :     2.852050
      pz      :     1.047303  p :     3.080184
      px      :     1.039730
      py      :     0.993152
      dz2     :     0.025158  d :     0.097556
      dxz     :     0.032133
      dyz     :     0.014073
      dx2y2   :     0.013623
      dxy     :     0.012569
  8 C s       :     2.854759  s :     2.854759
      pz      :     1.059918  p :     3.050549
      px      :     1.032330
      py      :     0.958301
      dz2     :     0.029492  d :     0.099230
      dxz     :     0.030574
      dyz     :     0.017292
      dx2y2   :     0.010396
      dxy     :     0.011476
  9 C s       :     2.851774  s :     2.851774
      pz      :     1.038716  p :     3.081897
      px      :     1.050995
      py      :     0.992186
      dz2     :     0.024655  d :     0.097651
      dxz     :     0.029829
      dyz     :     0.011252
      dx2y2   :     0.015954
      dxy     :     0.015961
 10 C s       :     2.852819  s :     2.852819
      pz      :     1.038758  p :     3.037668
      px      :     1.041279
      py      :     0.957631
      dz2     :     0.024611  d :     0.097007
      dxz     :     0.031225
      dyz     :     0.014576
      dx2y2   :     0.014106
      dxy     :     0.012489
 11 N s       :     3.355010  s :     3.355010
      pz      :     1.466531  p :     3.660647
      px      :     0.964045
      py      :     1.230070
      dz2     :     0.023866  d :     0.085320
      dxz     :     0.013848
      dyz     :     0.011923
      dx2y2   :     0.020437
      dxy     :     0.015246
 12 O s       :     3.488201  s :     3.488201
      pz      :     1.492685  p :     4.558514
      px      :     1.376147
      py      :     1.689682
      dz2     :     0.014663  d :     0.043600
      dxz     :     0.008246
      dyz     :     0.005195
      dx2y2   :     0.007439
      dxy     :     0.008057
 13 C s       :     2.829762  s :     2.829762
      pz      :     0.996028  p :     3.074078
      px      :     1.026459
      py      :     1.051592
      dz2     :     0.024813  d :     0.098242
      dxz     :     0.021998
      dyz     :     0.013339
      dx2y2   :     0.026045
      dxy     :     0.012048
 14 C s       :     2.832927  s :     2.832927
      pz      :     1.033805  p :     3.102724
      px      :     1.013816
      py      :     1.055103
      dz2     :     0.009670  d :     0.098055
      dxz     :     0.025271
      dyz     :     0.026920
      dx2y2   :     0.026877
      dxy     :     0.009318
 15 C s       :     2.824142  s :     2.824142
      pz      :     0.954093  p :     2.989791
      px      :     1.031716
      py      :     1.003981
      dz2     :     0.029306  d :     0.132417
      dxz     :     0.034013
      dyz     :     0.030010
      dx2y2   :     0.030077
      dxy     :     0.009010
 16 N s       :     3.146056  s :     3.146056
      pz      :     1.444971  p :     3.992992
      px      :     1.373621
      py      :     1.174400
      dz2     :     0.011272  d :     0.059437
      dxz     :     0.006484
      dyz     :     0.013910
      dx2y2   :     0.019827
      dxy     :     0.007943
 17 C s       :     2.830123  s :     2.830123
      pz      :     1.052075  p :     2.974902
      px      :     1.026581
      py      :     0.896246
      dz2     :     0.019894  d :     0.131795
      dxz     :     0.021609
      dyz     :     0.029030
      dx2y2   :     0.036734
      dxy     :     0.024528
 18 C s       :     2.835418  s :     2.835418
      pz      :     1.025040  p :     3.080613
      px      :     1.004732
      py      :     1.050841
      dz2     :     0.022623  d :     0.098284
      dxz     :     0.026032
      dyz     :     0.010178
      dx2y2   :     0.027767
      dxy     :     0.011684
 19 C s       :     2.822138  s :     2.822138
      pz      :     1.054532  p :     3.099807
      px      :     0.981699
      py      :     1.063575
      dz2     :     0.024370  d :     0.103445
      dxz     :     0.022178
      dyz     :     0.010538
      dx2y2   :     0.029057
      dxy     :     0.017301
 20 C s       :     2.922026  s :     2.922026
      pz      :     0.906144  p :     2.965800
      px      :     1.125725
      py      :     0.933930
      dz2     :     0.012175  d :     0.115696
      dxz     :     0.031592
      dyz     :     0.005882
      dx2y2   :     0.033720
      dxy     :     0.032328
 21 N s       :     3.422038  s :     3.422038
      pz      :     1.089855  p :     3.641813
      px      :     1.415502
      py      :     1.136456
      dz2     :     0.006678  d :     0.057092
      dxz     :     0.014077
      dyz     :     0.002811
      dx2y2   :     0.016796
      dxy     :     0.016731
 22 C s       :     2.831799  s :     2.831799
      pz      :     0.992919  p :     2.954936
      px      :     0.911769
      py      :     1.050248
      dz2     :     0.013984  d :     0.124306
      dxz     :     0.031558
      dyz     :     0.029961
      dx2y2   :     0.028248
      dxy     :     0.020555
 23 H s       :     0.911955  s :     0.911955
      pz      :     0.015427  p :     0.067538
      px      :     0.035321
      py      :     0.016790
 24 H s       :     0.911080  s :     0.911080
      pz      :     0.022468  p :     0.065797
      px      :     0.026925
      py      :     0.016405
 25 H s       :     0.907454  s :     0.907454
      pz      :     0.038256  p :     0.066784
      px      :     0.013149
      py      :     0.015379
 26 H s       :     0.891842  s :     0.891842
      pz      :     0.042195  p :     0.069875
      px      :     0.011315
      py      :     0.016365
 27 H s       :     0.901524  s :     0.901524
      pz      :     0.026875  p :     0.068453
      px      :     0.028122
      py      :     0.013456
 28 H s       :     0.902288  s :     0.902288
      pz      :     0.012507  p :     0.068073
      px      :     0.036771
      py      :     0.018795
 29 H s       :     0.902215  s :     0.902215
      pz      :     0.039793  p :     0.068439
      px      :     0.011447
      py      :     0.017199
 30 H s       :     0.893555  s :     0.893555
      pz      :     0.028033  p :     0.070404
      px      :     0.029759
      py      :     0.012611
 31 H s       :     0.914536  s :     0.914536
      pz      :     0.012398  p :     0.067320
      px      :     0.014028
      py      :     0.040893
 32 H s       :     0.908612  s :     0.908612
      pz      :     0.025312  p :     0.066951
      px      :     0.024230
      py      :     0.017409
 33 H s       :     0.914790  s :     0.914790
      pz      :     0.021594  p :     0.066723
      px      :     0.012807
      py      :     0.032323
 34 H s       :     0.915823  s :     0.915823
      pz      :     0.024085  p :     0.066705
      px      :     0.014577
      py      :     0.028043
 35 H s       :     0.924430  s :     0.924430
      pz      :     0.012812  p :     0.065272
      px      :     0.013583
      py      :     0.038877
 36 H s       :     0.920392  s :     0.920392
      pz      :     0.013857  p :     0.065352
      px      :     0.038357
      py      :     0.013139
 37 H s       :     0.934851  s :     0.934851
      pz      :     0.029214  p :     0.066657
      px      :     0.023465
      py      :     0.013978
 38 H s       :     0.922256  s :     0.922256
      pz      :     0.032233  p :     0.064098
      px      :     0.015415
      py      :     0.016450
 39 H s       :     0.913388  s :     0.913388
      pz      :     0.035896  p :     0.067384
      px      :     0.015156
      py      :     0.016332
 40 H s       :     0.905088  s :     0.905088
      pz      :     0.012391  p :     0.066345
      px      :     0.012021
      py      :     0.041933
 41 H s       :     0.885332  s :     0.885332
      pz      :     0.037438  p :     0.066897
      px      :     0.013754
      py      :     0.015704
 42 H s       :     0.880927  s :     0.880927
      pz      :     0.012778  p :     0.068674
      px      :     0.010666
      py      :     0.045230
 43 H s       :     0.914082  s :     0.914082
      pz      :     0.020191  p :     0.066085
      px      :     0.014034
      py      :     0.031860
 44 H s       :     0.916717  s :     0.916717
      pz      :     0.030458  p :     0.065573
      px      :     0.010747
      py      :     0.024369


                      *****************************
                      * MAYER POPULATION ANALYSIS *
                      *****************************

  NA   - Mulliken gross atomic population
  ZA   - Total nuclear charge
  QA   - Mulliken gross atomic charge
  VA   - Mayer's total valence
  BVA  - Mayer's bonded valence
  FA   - Mayer's free valence

  ATOM       NA         ZA         QA         VA         BVA        FA
  0 C      5.9302     6.0000     0.0698     3.8317     3.8317    -0.0000
  1 C      6.6161     6.0000    -0.6161     3.8440     3.8440    -0.0000
  2 C      5.4535     6.0000     0.5465     3.6052     3.6052    -0.0000
  3 N      7.4033     7.0000    -0.4033     2.9677     2.9677    -0.0000
  4 C      5.7100     6.0000     0.2900     4.0276     4.0276    -0.0000
  5 C      6.1794     6.0000    -0.1794     3.8829     3.8829     0.0000
  6 C      5.9786     6.0000     0.0214     3.8997     3.8997    -0.0000
  7 C      6.0471     6.0000    -0.0471     3.8793     3.8793    -0.0000
  8 C      6.0153     6.0000    -0.0153     3.8567     3.8567    -0.0000
  9 C      6.0437     6.0000    -0.0437     3.8723     3.8723     0.0000
 10 C      5.9842     6.0000     0.0158     3.8958     3.8958     0.0000
 11 N      7.0863     7.0000    -0.0863     2.7103     2.7103     0.0000
 12 O      8.4050     8.0000    -0.4050     2.0428     2.0428    -0.0000
 13 C      5.9119     6.0000     0.0881     3.8013     3.8013    -0.0000
 14 C      6.0491     6.0000    -0.0491     3.9489     3.9489    -0.0000
 15 C      5.8300     6.0000     0.1700     3.8514     3.8514    -0.0000
 16 N      7.6673     7.0000    -0.6673     2.7987     2.7987    -0.0000
 17 C      5.8184     6.0000     0.1816     3.8725     3.8725     0.0000
 18 C      6.1012     6.0000    -0.1012     3.9782     3.9782    -0.0000
 19 C      5.9428     6.0000     0.0572     3.8774     3.8774    -0.0000
 20 C      6.1328     6.0000    -0.1328     4.0157     4.0157    -0.0000
 21 N      7.1371     7.0000    -0.1371     3.1594     3.1594     0.0000
 22 C      5.6515     6.0000     0.3485     3.7092     3.7092    -0.0000
 23 H      0.9548     1.0000     0.0452     0.9937     0.9937    -0.0000
 24 H      0.9556     1.0000     0.0444     0.9876     0.9876    -0.0000
 25 H      0.9397     1.0000     0.0603     0.9892     0.9892    -0.0000
 26 H      0.9341     1.0000     0.0659     0.9991     0.9991    -0.0000
 27 H      0.9527     1.0000     0.0473     0.9865     0.9865     0.0000
 28 H      0.9519     1.0000     0.0481     0.9852     0.9852     0.0000
 29 H      0.9542     1.0000     0.0458     0.9866     0.9866     0.0000
 30 H      0.9371     1.0000     0.0629     1.0030     1.0030    -0.0000
 31 H      0.9540     1.0000     0.0460     0.9876     0.9876    -0.0000
 32 H      0.9494     1.0000     0.0506     0.9849     0.9849    -0.0000
 33 H      0.9622     1.0000     0.0378     0.9730     0.9730    -0.0000
 34 H      0.9627     1.0000     0.0373     0.9730     0.9730    -0.0000
 35 H      0.9681     1.0000     0.0319     0.9851     0.9851    -0.0000
 36 H      0.9609     1.0000     0.0391     0.9832     0.9832    -0.0000
 37 H      0.9743     1.0000     0.0257     0.9756     0.9756     0.0000
 38 H      0.9672     1.0000     0.0328     0.9793     0.9793     0.0000
 39 H      0.9481     1.0000     0.0519     0.9744     0.9744    -0.0000
 40 H      0.9423     1.0000     0.0577     0.9725     0.9725     0.0000
 41 H      0.9214     1.0000     0.0786     0.9839     0.9839    -0.0000
 42 H      0.9050     1.0000     0.0950     0.9899     0.9899    -0.0000
 43 H      0.9551     1.0000     0.0449     0.9979     0.9979    -0.0000
 44 H      0.9547     1.0000     0.0453     0.9900     0.9900    -0.0000

  Mayer bond orders larger than 0.100000
B(  0-C ,  1-C ) :   0.9831 B(  0-C , 23-H ) :   0.9896 B(  0-C , 24-H ) :   0.9819 
B(  0-C , 25-H ) :   0.9798 B(  1-C ,  2-C ) :   0.9288 B(  1-C , 13-C ) :   0.9905 
B(  1-C , 22-C ) :   0.9340 B(  2-C ,  3-N ) :   1.7003 B(  2-C , 12-O ) :   1.0714 
B(  3-N ,  4-C ) :   1.2436 B(  4-C ,  5-C ) :   1.0597 B(  4-C , 11-N ) :   1.7341 
B(  5-C ,  6-C ) :   1.3915 B(  5-C , 10-C ) :   1.4054 B(  6-C ,  7-C ) :   1.4372 
B(  6-C , 26-H ) :   0.9973 B(  7-C ,  8-C ) :   1.4001 B(  7-C , 27-H ) :   0.9998 
B(  8-C ,  9-C ) :   1.4112 B(  8-C , 28-H ) :   0.9988 B(  9-C , 10-C ) :   1.4213 
B(  9-C , 29-H ) :   1.0003 B( 10-C , 30-H ) :   0.9965 B( 11-N , 12-O ) :   0.8853 
B( 13-C , 14-C ) :   1.0279 B( 13-C , 31-H ) :   0.9689 B( 13-C , 32-H ) :   0.9716 
B( 14-C , 15-C ) :   1.0214 B( 14-C , 33-H ) :   0.9712 B( 14-C , 34-H ) :   0.9764 
B( 15-C , 16-N ) :   0.9390 B( 15-C , 35-H ) :   0.9777 B( 15-C , 36-H ) :   0.9841 
B( 16-N , 17-C ) :   0.9262 B( 16-N , 22-C ) :   0.9419 B( 17-C , 18-C ) :   1.0680 
B( 17-C , 37-H ) :   0.9752 B( 17-C , 38-H ) :   0.9716 B( 18-C , 19-C ) :   1.0201 
B( 18-C , 39-H ) :   0.9665 B( 18-C , 40-H ) :   0.9718 B( 19-C , 20-C ) :   0.9478 
B( 19-C , 41-H ) :   0.9597 B( 19-C , 42-H ) :   0.9546 B( 20-C , 21-N ) :   3.0971 
B( 22-C , 43-H ) :   0.9788 B( 22-C , 44-H ) :   0.9781 

-------
TIMINGS
-------

Total SCF time: 0 days 0 hours 0 min 27 sec 

Total time                  ....      27.882 sec
Sum of individual times     ....      27.530 sec  ( 98.7%)

Fock matrix formation       ....      26.416 sec  ( 94.7%)
Diagonalization             ....       0.310 sec  (  1.1%)
Density matrix formation    ....       0.024 sec  (  0.1%)
Population analysis         ....       0.041 sec  (  0.1%)
Initial guess               ....       0.159 sec  (  0.6%)
Orbital Transformation      ....       0.000 sec  (  0.0%)
Orbital Orthonormalization  ....       0.000 sec  (  0.0%)
DIIS solution               ....       0.147 sec  (  0.5%)
SOSCF solution              ....       0.241 sec  (  0.9%)

Maximum memory used throughout the entire SCF-calculation: 242.2 MB

-------------------------   --------------------
FINAL SINGLE POINT ENERGY      -986.291696248846
-------------------------   --------------------


                            ***************************************
                            *     ORCA property calculations      *
                            ***************************************

                                    ---------------------
                                    Active property flags
                                    ---------------------
   (+) Dipole Moment


------------------------------------------------------------------------------
                       ORCA ELECTRIC PROPERTIES CALCULATION
------------------------------------------------------------------------------

Dipole Moment Calculation                       ... on
Quadrupole Moment Calculation                   ... off
Polarizability Calculation                      ... off
GBWName                                         ... ./ZINC000000000120/ZINC000000000120.gbw
Electron density                                ... ./ZINC000000000120/ZINC000000000120.scfp
The origin for moment calculation is the CENTER OF MASS  = ( 0.500899,  0.157873  0.158927)

-------------
DIPOLE MOMENT
-------------
                                X             Y             Z
Electronic contribution:     14.49331       3.72579       7.63778
Nuclear contribution   :    -12.91023      -4.19183      -8.46916
                        -----------------------------------------
Total Dipole Moment    :      1.58309      -0.46604      -0.83139
                        -----------------------------------------
Magnitude (a.u.)       :      1.84785
Magnitude (Debye)      :      4.69687



--------------------
Rotational spectrum 
--------------------
 
Rotational constants in cm-1:     0.019762     0.003058     0.002947 
Rotational constants in MHz :   592.435139    91.676017    88.360684 

 Dipole components along the rotational axes: 
x,y,z [a.u.] :     1.589514    -0.508385    -0.793445 
x,y,z [Debye]:     4.040223    -1.292211    -2.016776 

 

Timings for individual modules:

Sum of individual times         ...       28.542 sec (=   0.476 min)
GTO integral calculation        ...        0.439 sec (=   0.007 min)   1.5 %
SCF iterations                  ...       28.103 sec (=   0.468 min)  98.5 %
                             ****ORCA TERMINATED NORMALLY****
TOTAL RUN TIME: 0 days 0 hours 0 minutes 28 seconds 929 msec
