
                                 *****************
                                 * O   R   C   A *
                                 *****************

                                            #,                                       
                                            ###                                      
                                            ####                                     
                                            #####                                    
                                            ######                                   
                                           ########,                                 
                                     ,,################,,,,,                         
                               ,,#################################,,                 
                          ,,##########################################,,             
                       ,#########################################, ''#####,          
                    ,#############################################,,   '####,        
                  ,##################################################,,,,####,       
                ,###########''''           ''''###############################       
              ,#####''   ,,,,##########,,,,          '''####'''          '####       
            ,##' ,,,,###########################,,,                        '##       
           ' ,,###''''                  '''############,,,                           
         ,,##''                                '''############,,,,        ,,,,,,###''
      ,#''                                            '''#######################'''  
     '                                                          ''''####''''         
             ,#######,   #######,   ,#######,      ##                                
            ,#'     '#,  ##    ##  ,#'     '#,    #''#        ######   ,####,        
            ##       ##  ##   ,#'  ##            #'  '#       #        #'  '#        
            ##       ##  #######   ##           ,######,      #####,   #    #        
            '#,     ,#'  ##    ##  '#,     ,#' ,#      #,         ##   #,  ,#        
             '#######'   ##     ##  '#######'  #'      '#     #####' # '####'        



                  #######################################################
                  #                        -***-                        #
                  #          Department of theory and spectroscopy      #
                  #    Directorship and core code : Frank Neese         #
                  #        Max Planck Institute fuer Kohlenforschung    #
                  #                Kaiser Wilhelm Platz 1               #
                  #                 D-45470 Muelheim/Ruhr               #
                  #                      Germany                        #
                  #                                                     #
                  #                  All rights reserved                #
                  #                        -***-                        #
                  #######################################################


                         Program Version 5.0.3 -  RELEASE  -


 With contributions from (in alphabetic order):
   Daniel Aravena         : Magnetic Suceptibility
   Michael Atanasov       : Ab Initio Ligand Field Theory (pilot matlab implementation)
   Alexander A. Auer      : GIAO ZORA, VPT2 properties, NMR spectrum
   Ute Becker             : Parallelization
   Giovanni Bistoni       : ED, misc. LED, open-shell LED, HFLD
   Martin Brehm           : Molecular dynamics
   Dmytro Bykov           : SCF Hessian
   Vijay G. Chilkuri      : MRCI spin determinant printing, contributions to CSF-ICE
   Dipayan Datta          : RHF DLPNO-CCSD density
   Achintya Kumar Dutta   : EOM-CC, STEOM-CC
   Dmitry Ganyushin       : Spin-Orbit,Spin-Spin,Magnetic field MRCI
   Miquel Garcia          : C-PCM and meta-GGA Hessian, CC/C-PCM, Gaussian charge scheme
   Yang Guo               : DLPNO-NEVPT2, F12-NEVPT2, CIM, IAO-localization
   Andreas Hansen         : Spin unrestricted coupled pair/coupled cluster methods
   Benjamin Helmich-Paris : MC-RPA, TRAH-SCF, COSX integrals
   Lee Huntington         : MR-EOM, pCC
   Robert Izsak           : Overlap fitted RIJCOSX, COSX-SCS-MP3, EOM
   Marcus Kettner         : VPT2
   Christian Kollmar      : KDIIS, OOCD, Brueckner-CCSD(T), CCSD density, CASPT2, CASPT2-K
   Simone Kossmann        : Meta GGA functionals, TD-DFT gradient, OOMP2, MP2 Hessian
   Martin Krupicka        : Initial AUTO-CI
   Lucas Lang             : DCDCAS
   Marvin Lechner         : AUTO-CI (C++ implementation), FIC-MRCC
   Dagmar Lenk            : GEPOL surface, SMD
   Dimitrios Liakos       : Extrapolation schemes; Compound Job, initial MDCI parallelization
   Dimitrios Manganas     : Further ROCIS development; embedding schemes
   Dimitrios Pantazis     : SARC Basis sets
   Anastasios Papadopoulos: AUTO-CI, single reference methods and gradients
   Taras Petrenko         : DFT Hessian,TD-DFT gradient, ASA, ECA, R-Raman, ABS, FL, XAS/XES, NRVS
   Peter Pinski           : DLPNO-MP2, DLPNO-MP2 Gradient
   Christoph Reimann      : Effective Core Potentials
   Marius Retegan         : Local ZFS, SOC
   Christoph Riplinger    : Optimizer, TS searches, QM/MM, DLPNO-CCSD(T), (RO)-DLPNO pert. Triples
   Tobias Risthaus        : Range-separated hybrids, TD-DFT gradient, RPA, STAB
   Michael Roemelt        : Original ROCIS implementation
   Masaaki Saitow         : Open-shell DLPNO-CCSD energy and density
   Barbara Sandhoefer     : DKH picture change effects
   Avijit Sen             : IP-ROCIS
   Kantharuban Sivalingam : CASSCF convergence, NEVPT2, FIC-MRCI
   Bernardo de Souza      : ESD, SOC TD-DFT
   Georgi Stoychev        : AutoAux, RI-MP2 NMR, DLPNO-MP2 response
   Willem Van den Heuvel  : Paramagnetic NMR
   Boris Wezisla          : Elementary symmetry handling
   Frank Wennmohs         : Technical directorship


 We gratefully acknowledge several colleagues who have allowed us to
 interface, adapt or use parts of their codes:
   Stefan Grimme, W. Hujo, H. Kruse, P. Pracht,  : VdW corrections, initial TS optimization,
                  C. Bannwarth, S. Ehlert          DFT functionals, gCP, sTDA/sTD-DF
   Ed Valeev, F. Pavosevic, A. Kumar             : LibInt (2-el integral package), F12 methods
   Garnet Chan, S. Sharma, J. Yang, R. Olivares  : DMRG
   Ulf Ekstrom                                   : XCFun DFT Library
   Mihaly Kallay                                 : mrcc  (arbitrary order and MRCC methods)
   Jiri Pittner, Ondrej Demel                    : Mk-CCSD
   Frank Weinhold                                : gennbo (NPA and NBO analysis)
   Christopher J. Cramer and Donald G. Truhlar   : smd solvation model
   Lars Goerigk                                  : TD-DFT with DH, B97 family of functionals
   V. Asgeirsson, H. Jonsson                     : NEB implementation
   FAccTs GmbH                                   : IRC, NEB, NEB-TS, DLPNO-Multilevel, CI-OPT
                                                   MM, QMMM, 2- and 3-layer-ONIOM, Crystal-QMMM,
                                                   LR-CPCM, SF, NACMEs, symmetry and pop. for TD-DFT,
                                                   nearIR, NL-DFT gradient (VV10), updates on ESD,
                                                   ML-optimized integration grids
   S Lehtola, MJT Oliveira, MAL Marques          : LibXC Library
   Liviu Ungur et al                             : ANISO software


 Your calculation uses the libint2 library for the computation of 2-el integrals
 For citations please refer to: http://libint.valeyev.net

 Your ORCA version has been built with support for libXC version: 5.1.0
 For citations please refer to: https://tddft.org/programs/libxc/

 This ORCA versions uses:
   CBLAS   interface :  Fast vector & matrix operations
   LAPACKE interface :  Fast linear algebra routines
   SCALAPACK package :  Parallel linear algebra routines
   Shared memory     :  Shared parallel matrices
   BLAS/LAPACK       :  OpenBLAS 0.3.15  USE64BITINT DYNAMIC_ARCH NO_AFFINITY Zen SINGLE_THREADED
        Core in use  :  Zen
   Copyright (c) 2011-2014, The OpenBLAS Project


================================================================================

----- Orbital basis set information -----
Your calculation utilizes the basis: def2-SVP
   F. Weigend and R. Ahlrichs, Phys. Chem. Chem. Phys. 7, 3297 (2005).

================================================================================
                                        WARNINGS
                       Please study these warnings very carefully!
================================================================================


INFO   : the flag for use of the SHARK integral package has been found!

================================================================================
                                       INPUT FILE
================================================================================
NAME = ./ZINC000000000187/ZINC000000000187.inp
|  1> !RHF def2-SVP TightSCF PAL16 
|  2> *xyz 0 1
|  3> C 5.208795580266502 -0.6056415842784791 0.4785909303538282
|  4> O 4.03096341822755 -0.7841855945599672 1.2575212213391627
|  5> C 2.8706465233896115 -0.2697526765090677 0.7470483714566554
|  6> C 2.7393251204459417 0.4162775594115826 -0.45867431527184743
|  7> C 1.4870637386564054 0.8893084857946427 -0.8550712344971813
|  8> O 1.4516005844845685 1.5865989293276166 -2.0366196201084557
|  9> C 0.3423607635093112 0.6600988129570983 -0.07628187070161631
| 10> C -0.9632305246426062 1.15751830812984 -0.5744275265539646
| 11> O -0.9699558246158323 2.2081057035401064 -1.220074946152516
| 12> C -2.232429131269054 0.41024364835506494 -0.4026908895005534
| 13> C -2.27432210593277 -0.988319167666688 -0.45213556927881793
| 14> C -3.4959611200763696 -1.6530630604587468 -0.32444539966996705
| 15> C -4.6750611061722775 -0.9251457718429212 -0.16174688415877567
| 16> C -4.638772802024631 0.4688507843832956 -0.13337272555289867
| 17> C -3.4203088486967514 1.1373943255774859 -0.26078061055261276
| 18> C 0.49104496298126343 0.004630714395496938 1.1501135947350205
| 19> O -0.5786035612082462 -0.15738054140566007 1.9857031552626316
| 20> C 1.7443095847968688 -0.46524560106881196 1.5531360485456447
| 21> H 6.038894416433843 -1.073057496360588 1.016981744644995
| 22> H 5.445270218304754 0.45684246110887217 0.3593152580782602
| 23> H 5.1190217699499065 -1.103616733340076 -0.4925071923201371
| 24> H 3.586077719547554 0.611263931256885 -1.1081531604436403
| 25> H 0.5893124941611775 2.0616119366920316 -2.0727632853446094
| 26> H -1.369078064220453 -1.5708548952591666 -0.5971877436185749
| 27> H -3.5292605598961333 -2.7391342249217314 -0.35818316795275984
| 28> H -5.625219951538573 -1.4447964114553455 -0.06513498101160729
| 29> H -5.558845089121074 1.035987946488043 -0.017556640680462747
| 30> H -3.3971152277272445 2.224929993070582 -0.24918750360015787
| 31> H -0.2845195197726034 -0.5659960770581947 2.8176783823091394
| 32> H 1.867996541759875 -0.9834737043032478 2.5004254801213683
| 33> *
| 34> 
| 35>                          ****END OF INPUT****
================================================================================

                       ****************************
                       * Single Point Calculation *
                       ****************************

---------------------------------
CARTESIAN COORDINATES (ANGSTROEM)
---------------------------------
  C      5.208796   -0.605642    0.478591
  O      4.030963   -0.784186    1.257521
  C      2.870647   -0.269753    0.747048
  C      2.739325    0.416278   -0.458674
  C      1.487064    0.889308   -0.855071
  O      1.451601    1.586599   -2.036620
  C      0.342361    0.660099   -0.076282
  C     -0.963231    1.157518   -0.574428
  O     -0.969956    2.208106   -1.220075
  C     -2.232429    0.410244   -0.402691
  C     -2.274322   -0.988319   -0.452136
  C     -3.495961   -1.653063   -0.324445
  C     -4.675061   -0.925146   -0.161747
  C     -4.638773    0.468851   -0.133373
  C     -3.420309    1.137394   -0.260781
  C      0.491045    0.004631    1.150114
  O     -0.578604   -0.157381    1.985703
  C      1.744310   -0.465246    1.553136
  H      6.038894   -1.073057    1.016982
  H      5.445270    0.456842    0.359315
  H      5.119022   -1.103617   -0.492507
  H      3.586078    0.611264   -1.108153
  H      0.589312    2.061612   -2.072763
  H     -1.369078   -1.570855   -0.597188
  H     -3.529261   -2.739134   -0.358183
  H     -5.625220   -1.444796   -0.065135
  H     -5.558845    1.035988   -0.017557
  H     -3.397115    2.224930   -0.249188
  H     -0.284520   -0.565996    2.817678
  H      1.867997   -0.983474    2.500425

----------------------------
CARTESIAN COORDINATES (A.U.)
----------------------------
  NO LB      ZA    FRAG     MASS         X           Y           Z
   0 C     6.0000    0    12.011    9.843197   -1.144497    0.904406
   1 O     8.0000    0    15.999    7.617417   -1.481896    2.376371
   2 C     6.0000    0    12.011    5.424736   -0.509759    1.411717
   3 C     6.0000    0    12.011    5.176574    0.786651   -0.866769
   4 C     6.0000    0    12.011    2.810143    1.680549   -1.615850
   5 O     8.0000    0    15.999    2.743128    2.998237   -3.848653
   6 C     6.0000    0    12.011    0.646968    1.247406   -0.144152
   7 C     6.0000    0    12.011   -1.820242    2.187393   -1.085511
   8 O     8.0000    0    15.999   -1.832951    4.172715   -2.305608
   9 C     6.0000    0    12.011   -4.218680    0.775248   -0.760975
  10 C     6.0000    0    12.011   -4.297846   -1.867653   -0.854412
  11 C     6.0000    0    12.011   -6.606409   -3.123836   -0.613113
  12 C     6.0000    0    12.011   -8.834585   -1.748272   -0.305657
  13 C     6.0000    0    12.011   -8.766010    0.886000   -0.252038
  14 C     6.0000    0    12.011   -6.463447    2.149364   -0.492804
  15 C     6.0000    0    12.011    0.927940    0.008751    2.173400
  16 O     8.0000    0    15.999   -1.093402   -0.297406    3.752435
  17 C     6.0000    0    12.011    3.296267   -0.879187    2.935002
  18 H     1.0000    0     1.008   11.411857   -2.027785    1.921817
  19 H     1.0000    0     1.008   10.290069    0.863307    0.679007
  20 H     1.0000    0     1.008    9.673549   -2.085533   -0.930704
  21 H     1.0000    0     1.008    6.776705    1.155121   -2.094106
  22 H     1.0000    0     1.008    1.113639    3.895882   -3.916955
  23 H     1.0000    0     1.008   -2.587183   -2.968486   -1.128521
  24 H     1.0000    0     1.008   -6.669336   -5.176214   -0.676868
  25 H     1.0000    0     1.008  -10.630125   -2.730270   -0.123087
  26 H     1.0000    0     1.008  -10.504695    1.957733   -0.033177
  27 H     1.0000    0     1.008   -6.419617    4.204508   -0.470896
  28 H     1.0000    0     1.008   -0.537664   -1.069578    5.324640
  29 H     1.0000    0     1.008    3.530002   -1.858496    4.725119

--------------------------------
INTERNAL COORDINATES (ANGSTROEM)
--------------------------------
 C      0   0   0     0.000000000000     0.00000000     0.00000000
 O      1   0   0     1.423340775695     0.00000000     0.00000000
 C      2   1   0     1.368049360984   116.77488063     0.00000000
 C      3   2   1     1.393431014712   126.01096004   359.66346148
 C      4   3   2     1.396082856856   119.80411075   180.09574814
 O      5   4   3     1.372416913874   116.08949035   178.22943155
 C      5   4   3     1.403351291942   121.24851379   358.44212667
 C      7   5   4     1.483288191931   118.47835561   181.68591272
 O      8   7   5     1.233142204082   117.79714375   326.39688222
 C      8   7   5     1.482827701626   123.05852528   142.52426378
 C     10   8   7     1.400063480005   121.66376250   324.83152470
 C     11  10   8     1.396635637272   119.89386029   181.85879406
 C     12  11  10     1.395210078528   120.10296002     0.66472086
 C     13  12  11     1.394757445818   120.12087772     0.34992219
 C     14  13  12     1.395649540964   119.97458069   359.65965005
 C      7   5   4     1.398496069729   118.45620163     3.35937455
 O     16   7   5     1.366969467826   120.55757831   175.37179826
 C     16   7   5     1.397813672277   120.37896766   356.95694599
 H      1   2   3     1.094260655231   107.75254795   180.27707624
 H      1   2   3     1.094997391383   111.10238035    62.50448879
 H      1   2   3     1.095020616227   111.12688563   298.06598926
 H      4   3   2     1.084819072296   122.20691904   359.38149469
 H      6   5   4     0.985131703081   107.40890058   195.10815416
 H     11  10   8     1.086211205180   121.03120375     1.34786928
 H     12  11  10     1.087105176135   119.96454378   180.27519712
 H     13  12  11     1.087277553575   119.96938473   179.84144300
 H     14  13  12     1.087010091783   120.10600248   179.32774756
 H     15  14  13     1.087844737199   119.77033479   179.32859622
 H     17  16   7     0.972437585567   109.64165564   184.53472041
 H     18  16   7     1.086837659211   120.90546866   180.54165126

---------------------------
INTERNAL COORDINATES (A.U.)
---------------------------
 C      0   0   0     0.000000000000     0.00000000     0.00000000
 O      1   0   0     2.689724261306     0.00000000     0.00000000
 C      2   1   0     2.585238629945   116.77488063     0.00000000
 C      3   2   1     2.633203004317   126.01096004   359.66346148
 C      4   3   2     2.638214259720   119.80411075   180.09574814
 O      5   4   3     2.593492108783   116.08949035   178.22943155
 C      5   4   3     2.651949611454   121.24851379   358.44212667
 C      7   5   4     2.803008460428   118.47835561   181.68591272
 O      8   7   5     2.330301049896   117.79714375   326.39688222
 C      8   7   5     2.802138259866   123.05852528   142.52426378
 C     10   8   7     2.645736547314   121.66376250   324.83152470
 C     11  10   8     2.639258863318   119.89386029   181.85879406
 C     12  11  10     2.636564947705   120.10296002     0.66472086
 C     13  12  11     2.635709595844   120.12087772     0.34992219
 C     14  13  12     2.637395411354   119.97458069   359.65965005
 C      7   5   4     2.642774571153   118.45620163     3.35937455
 O     16   7   5     2.583197927624   120.55757831   175.37179826
 C     16   7   5     2.641485026854   120.37896766   356.95694599
 H      1   2   3     2.067852957512   107.75254795   180.27707624
 H      1   2   3     2.069245187071   111.10238035    62.50448879
 H      1   2   3     2.069289075667   111.12688563   298.06598926
 H      4   3   2     2.050010951493   122.20691904   359.38149469
 H      6   5   4     1.861629124667   107.40890058   195.10815416
 H     11  10   8     2.052641701386   121.03120375     1.34786928
 H     12  11  10     2.054331061663   119.96454378   180.27519712
 H     13  12  11     2.054656807816   119.96938473   179.84144300
 H     14  13  12     2.054151378279   120.10600248   179.32774756
 H     15  14  13     2.055728629534   119.77033479   179.32859622
 H     17  16   7     1.837640719053   109.64165564   184.53472041
 H     18  16   7     2.053825527941   120.90546866   180.54165126

---------------------
BASIS SET INFORMATION
---------------------
There are 3 groups of distinct atoms

 Group   1 Type C   : 7s4p1d contracted to 3s2p1d pattern {511/31/1}
 Group   2 Type O   : 7s4p1d contracted to 3s2p1d pattern {511/31/1}
 Group   3 Type H   : 4s1p contracted to 2s1p pattern {31/1}

Atom   0C    basis set group =>   1
Atom   1O    basis set group =>   2
Atom   2C    basis set group =>   1
Atom   3C    basis set group =>   1
Atom   4C    basis set group =>   1
Atom   5O    basis set group =>   2
Atom   6C    basis set group =>   1
Atom   7C    basis set group =>   1
Atom   8O    basis set group =>   2
Atom   9C    basis set group =>   1
Atom  10C    basis set group =>   1
Atom  11C    basis set group =>   1
Atom  12C    basis set group =>   1
Atom  13C    basis set group =>   1
Atom  14C    basis set group =>   1
Atom  15C    basis set group =>   1
Atom  16O    basis set group =>   2
Atom  17C    basis set group =>   1
Atom  18H    basis set group =>   3
Atom  19H    basis set group =>   3
Atom  20H    basis set group =>   3
Atom  21H    basis set group =>   3
Atom  22H    basis set group =>   3
Atom  23H    basis set group =>   3
Atom  24H    basis set group =>   3
Atom  25H    basis set group =>   3
Atom  26H    basis set group =>   3
Atom  27H    basis set group =>   3
Atom  28H    basis set group =>   3
Atom  29H    basis set group =>   3


           ************************************************************
           *        Program running with 16 parallel MPI-processes    *
           *              working on a common directory               *
           ************************************************************
------------------------------------------------------------------------------
                           ORCA GTO INTEGRAL CALCULATION
------------------------------------------------------------------------------
------------------------------------------------------------------------------
                   ___                                                        
                  /   \      - P O W E R E D   B Y -                         
                 /     \                                                     
                 |  |  |   _    _      __       _____    __    __             
                 |  |  |  | |  | |    /  \     |  _  \  |  |  /  |          
                  \  \/   | |  | |   /    \    | | | |  |  | /  /          
                 / \  \   | |__| |  /  /\  \   | |_| |  |  |/  /          
                |  |  |   |  __  | /  /__\  \  |    /   |      \           
                |  |  |   | |  | | |   __   |  |    \   |  |\   \          
                \     /   | |  | | |  |  |  |  | |\  \  |  | \   \       
                 \___/    |_|  |_| |__|  |__|  |_| \__\ |__|  \__/        
                                                                              
                      - O R C A' S   B I G   F R I E N D -                    
                                      &                                       
                       - I N T E G R A L  F E E D E R -                       
                                                                              
 v1 FN, 2020, v2 2021                                                         
------------------------------------------------------------------------------


Reading SHARK input file ./ZINC000000000187/ZINC000000000187.SHARKINP.tmp ... ok
----------------------
SHARK INTEGRAL PACKAGE
----------------------

Number of atoms                             ...     30
Number of basis functions                   ...    312
Number of shells                            ...    144
Maximum angular momentum                    ...      2
Integral batch strategy                     ... SHARK/LIBINT Hybrid
RI-J (if used) integral strategy            ... SPLIT-RIJ (Revised 2003 algorithm where possible)
Printlevel                                  ...      1
Contraction scheme used                     ... SEGMENTED contraction
Coulomb Range Separation                    ... NOT USED
Exchange Range Separation                   ... NOT USED
Finite Nucleus Model                        ... NOT USED
Auxiliary Coulomb fitting basis             ... NOT available
Auxiliary J/K fitting basis                 ... NOT available
Auxiliary Correlation fitting basis         ... NOT available
Auxiliary 'external' fitting basis          ... NOT available
Integral threshold                          ...     2.500000e-11
Primitive cut-off                           ...     2.500000e-12
Primitive pair pre-selection threshold      ...     2.500000e-12

Calculating pre-screening integrals         ... done (  0.0 sec) Dimension = 144
Organizing shell pair data                  ... done (  0.0 sec)
Shell pair information
Total number of shell pairs                 ...     10440
Shell pairs after pre-screening             ...      7955
Total number of primitive shell pairs       ...     38496
Primitive shell pairs kept                  ...     19351
          la=0 lb=0:   2359 shell pairs
          la=1 lb=0:   2913 shell pairs
          la=1 lb=1:    931 shell pairs
          la=2 lb=0:   1007 shell pairs
          la=2 lb=1:    632 shell pairs
          la=2 lb=2:    113 shell pairs

Calculating one electron integrals          ... done (  0.0 sec)
Calculating Nuclear repulsion               ... done (  0.0 sec) ENN=   1254.256405301649 Eh

SHARK setup successfully completed in   0.2 seconds

Maximum memory used throughout the entire GTOINT-calculation: 14.0 MB


           ************************************************************
           *        Program running with 16 parallel MPI-processes    *
           *              working on a common directory               *
           ************************************************************
-------------------------------------------------------------------------------
                                 ORCA SCF
-------------------------------------------------------------------------------

------------
SCF SETTINGS
------------
Hamiltonian:
 Ab initio Hamiltonian  Method          .... Hartree-Fock(GTOs)


General Settings:
 Integral files         IntName         .... ./ZINC000000000187/ZINC000000000187
 Hartree-Fock type      HFTyp           .... RHF
 Total Charge           Charge          ....    0
 Multiplicity           Mult            ....    1
 Number of Electrons    NEL             ....  128
 Basis Dimension        Dim             ....  312
 Nuclear Repulsion      ENuc            ....   1254.2564053016 Eh

Convergence Acceleration:
 DIIS                   CNVDIIS         .... on
   Start iteration      DIISMaxIt       ....    12
   Startup error        DIISStart       ....  0.200000
   # of expansion vecs  DIISMaxEq       ....     5
   Bias factor          DIISBfac        ....   1.050
   Max. coefficient     DIISMaxC        ....  10.000
 Trust-Rad. Augm. Hess. CNVTRAH         .... auto
   Auto Start mean grad. ratio tolernc. ....  1.125000
   Auto Start start iteration           ....    20
   Auto Start num. interpolation iter.  ....    10
   Max. Number of Micro iterations      ....    16
   Max. Number of Macro iterations      .... Maxiter - #DIIS iter
   Number of Davidson start vectors     ....     2
   Converg. threshold I  (grad. norm)   ....   1.000e-05
   Converg. threshold II (energy diff.) ....   1.000e-08
   Grad. Scal. Fac. for Micro threshold ....   0.100
   Minimum threshold for Micro iter.    ....   0.010
   NR start threshold (gradient norm)   ....   0.001
   Initial trust radius                 ....   0.400
   Minimum AH scaling param. (alpha)    ....   1.000
   Maximum AH scaling param. (alpha)    .... 1000.000
   Orbital update algorithm             .... Taylor
   White noise on init. David. guess    .... on
   Maximum white noise                  ....   0.010
   Quad. conv. algorithm                .... NR
 SOSCF                  CNVSOSCF        .... on
   Start iteration      SOSCFMaxIt      ....   150
   Startup grad/error   SOSCFStart      ....  0.003300
 Level Shifting         CNVShift        .... on
   Level shift para.    LevelShift      ....    0.2500
   Turn off err/grad.   ShiftErr        ....    0.0010
 Zerner damping         CNVZerner       .... off
 Static damping         CNVDamp         .... on
   Fraction old density DampFac         ....    0.7000
   Max. Damping (<1)    DampMax         ....    0.9800
   Min. Damping (>=0)   DampMin         ....    0.0000
   Turn off err/grad.   DampErr         ....    0.1000
 Fernandez-Rico         CNVRico         .... off

SCF Procedure:
 Maximum # iterations   MaxIter         ....   125
 SCF integral mode      SCFMode         .... Direct
   Integral package                     .... SHARK and LIBINT hybrid scheme
 Reset frequency        DirectResetFreq ....    20
 Integral Threshold     Thresh          ....  2.500e-11 Eh
 Primitive CutOff       TCut            ....  2.500e-12 Eh

Convergence Tolerance:
 Convergence Check Mode ConvCheckMode   .... Total+1el-Energy
 Convergence forced     ConvForced      .... 0
 Energy Change          TolE            ....  1.000e-08 Eh
 1-El. energy change                    ....  1.000e-05 Eh
 Orbital Gradient       TolG            ....  1.000e-05
 Orbital Rotation angle TolX            ....  1.000e-05
 DIIS Error             TolErr          ....  5.000e-07


Diagonalization of the overlap matrix:
Smallest eigenvalue                        ... 1.814e-04
Time for diagonalization                   ...    0.011 sec
Threshold for overlap eigenvalues          ... 1.000e-08
Number of eigenvalues below threshold      ... 0
Time for construction of square roots      ...    0.006 sec
Total time needed                          ...    0.017 sec

Time for model grid setup =    0.116 sec

------------------------------
INITIAL GUESS: MODEL POTENTIAL
------------------------------
Loading Hartree-Fock densities                     ... done
Calculating cut-offs                               ... done
Initializing the effective Hamiltonian             ... done
Setting up the integral package (SHARK)            ... done
Starting the Coulomb interaction                   ... done (   0.0 sec)
Reading the grid                                   ... done
Mapping shells                                     ... done
Starting the XC term evaluation                    ... done (   0.0 sec)
Transforming the Hamiltonian                       ... done (   0.0 sec)
Diagonalizing the Hamiltonian                      ... done (   0.0 sec)
Back transforming the eigenvectors                 ... done (   0.0 sec)
Now organizing SCF variables                       ... done
                      ------------------
                      INITIAL GUESS DONE (   0.2 sec)
                      ------------------
--------------
SCF ITERATIONS
--------------
ITER       Energy         Delta-E        Max-DP      RMS-DP      [F,P]     Damp
               ***  Starting incremental Fock matrix formation  ***
  0   -835.4218546828   0.000000000000 0.07124119  0.00229688  0.2163283 0.7000
  1   -835.5995088717  -0.177654188868 0.05599906  0.00181002  0.1334186 0.7000
                               ***Turning on DIIS***
  2   -835.7113014643  -0.111792592633 0.15289847  0.00429358  0.0767383 0.0000
  3   -835.0949466162   0.616354848083 0.03099763  0.00068782  0.0442020 0.0000
  4   -836.0209828876  -0.926036271330 0.01015386  0.00027749  0.0088826 0.0000
  5   -835.9582235935   0.062759294103 0.00514181  0.00012908  0.0066570 0.0000
                      *** Initiating the SOSCF procedure ***
                           *** Shutting down DIIS ***
                      *** Re-Reading the Fockian *** 
                      *** Removing any level shift *** 
ITER      Energy       Delta-E        Grad      Rot      Max-DP    RMS-DP
  6   -835.94772949   0.0104941055  0.001816  0.001816  0.001941  0.000059
               *** Restarting incremental Fock matrix formation ***
  7   -835.95327229  -0.0055428053  0.000935  0.002292  0.001190  0.000033
  8   -835.95329583  -0.0000235327  0.000438  0.002349  0.001143  0.000036
  9   -835.95330371  -0.0000078833  0.000087  0.000185  0.000389  0.000008
 10   -835.95330429  -0.0000005832  0.000076  0.000097  0.000116  0.000003
 11   -835.95330448  -0.0000001871  0.000017  0.000054  0.000061  0.000001
 12   -835.95330451  -0.0000000300  0.000010  0.000045  0.000035  0.000001
 13   -835.95330452  -0.0000000057  0.000004  0.000010  0.000011  0.000000
                 **** Energy Check signals convergence ****
              ***Rediagonalizing the Fockian in SOSCF/NRSCF***

               *****************************************************
               *                     SUCCESS                       *
               *           SCF CONVERGED AFTER  14 CYCLES          *
               *****************************************************


----------------
TOTAL SCF ENERGY
----------------

Total Energy       :         -835.95330452 Eh          -22747.44587 eV

Components:
Nuclear Repulsion  :         1254.25640530 Eh           34130.05193 eV
Electronic Energy  :        -2090.20970982 Eh          -56877.49780 eV
One Electron Energy:        -3632.27144463 Eh          -98839.13089 eV
Two Electron Energy:         1542.06173481 Eh           41961.63309 eV

Virial components:
Potential Energy   :        -1668.17640872 Eh          -45393.38784 eV
Kinetic Energy     :          832.22310420 Eh           22645.94196 eV
Virial Ratio       :            2.00448221


---------------
SCF CONVERGENCE
---------------

  Last Energy change         ...   -1.6016e-09  Tolerance :   1.0000e-08
  Last MAX-Density change    ...    4.0801e-06  Tolerance :   1.0000e-07
  Last RMS-Density change    ...    1.1219e-07  Tolerance :   5.0000e-09
  Last Orbital Gradient      ...    1.1162e-06  Tolerance :   1.0000e-05
  Last Orbital Rotation      ...    2.6296e-06  Tolerance :   1.0000e-05

             **** THE GBW FILE WAS UPDATED (./ZINC000000000187/ZINC000000000187.gbw) ****
             **** DENSITY ./ZINC000000000187/ZINC000000000187.scfp WAS UPDATED ****
             **** ENERGY FILE WAS UPDATED (./ZINC000000000187/ZINC000000000187.en.tmp) ****
             **** THE GBW FILE WAS UPDATED (./ZINC000000000187/ZINC000000000187.gbw) ****
             **** DENSITY ./ZINC000000000187/ZINC000000000187.scfp WAS UPDATED ****
----------------
ORBITAL ENERGIES
----------------

  NO   OCC          E(Eh)            E(eV) 
   0   2.0000     -20.601403      -560.5927 
   1   2.0000     -20.595258      -560.4255 
   2   2.0000     -20.572165      -559.7971 
   3   2.0000     -20.546043      -559.0863 
   4   2.0000     -11.350984      -308.8760 
   5   2.0000     -11.336190      -308.4734 
   6   2.0000     -11.331128      -308.3357 
   7   2.0000     -11.330421      -308.3164 
   8   2.0000     -11.301427      -307.5275 
   9   2.0000     -11.253984      -306.2365 
  10   2.0000     -11.250911      -306.1529 
  11   2.0000     -11.250478      -306.1411 
  12   2.0000     -11.249084      -306.1031 
  13   2.0000     -11.245495      -306.0055 
  14   2.0000     -11.244125      -305.9682 
  15   2.0000     -11.240964      -305.8822 
  16   2.0000     -11.231719      -305.6306 
  17   2.0000     -11.230666      -305.6019 
  18   2.0000      -1.407500       -38.3000 
  19   2.0000      -1.403649       -38.1952 
  20   2.0000      -1.390113       -37.8269 
  21   2.0000      -1.361206       -37.0403 
  22   2.0000      -1.154226       -31.4081 
  23   2.0000      -1.146636       -31.2015 
  24   2.0000      -1.051116       -28.6023 
  25   2.0000      -1.022210       -27.8158 
  26   2.0000      -1.012749       -27.5583 
  27   2.0000      -1.009189       -27.4614 
  28   2.0000      -0.952768       -25.9261 
  29   2.0000      -0.880343       -23.9554 
  30   2.0000      -0.852898       -23.2085 
  31   2.0000      -0.843670       -22.9574 
  32   2.0000      -0.826357       -22.4863 
  33   2.0000      -0.780381       -21.2353 
  34   2.0000      -0.754560       -20.5326 
  35   2.0000      -0.731196       -19.8968 
  36   2.0000      -0.709418       -19.3043 
  37   2.0000      -0.699746       -19.0411 
  38   2.0000      -0.682437       -18.5701 
  39   2.0000      -0.668337       -18.1864 
  40   2.0000      -0.663940       -18.0667 
  41   2.0000      -0.648217       -17.6389 
  42   2.0000      -0.633007       -17.2250 
  43   2.0000      -0.622517       -16.9396 
  44   2.0000      -0.617035       -16.7904 
  45   2.0000      -0.608231       -16.5508 
  46   2.0000      -0.598011       -16.2727 
  47   2.0000      -0.596019       -16.2185 
  48   2.0000      -0.587144       -15.9770 
  49   2.0000      -0.572868       -15.5885 
  50   2.0000      -0.555480       -15.1154 
  51   2.0000      -0.540246       -14.7008 
  52   2.0000      -0.537548       -14.6274 
  53   2.0000      -0.525843       -14.3089 
  54   2.0000      -0.522067       -14.2062 
  55   2.0000      -0.510419       -13.8892 
  56   2.0000      -0.504888       -13.7387 
  57   2.0000      -0.497610       -13.5407 
  58   2.0000      -0.447030       -12.1643 
  59   2.0000      -0.432660       -11.7733 
  60   2.0000      -0.345734        -9.4079 
  61   2.0000      -0.343799        -9.3552 
  62   2.0000      -0.336486        -9.1563 
  63   2.0000      -0.324035        -8.8174 
  64   0.0000       0.071835         1.9547 
  65   0.0000       0.124980         3.4009 
  66   0.0000       0.128012         3.4834 
  67   0.0000       0.144375         3.9286 
  68   0.0000       0.170401         4.6369 
  69   0.0000       0.182920         4.9775 
  70   0.0000       0.185219         5.0401 
  71   0.0000       0.212910         5.7936 
  72   0.0000       0.220910         6.0113 
  73   0.0000       0.234370         6.3775 
  74   0.0000       0.238590         6.4924 
  75   0.0000       0.239435         6.5154 
  76   0.0000       0.260983         7.1017 
  77   0.0000       0.262782         7.1507 
  78   0.0000       0.264273         7.1912 
  79   0.0000       0.270448         7.3593 
  80   0.0000       0.281500         7.6600 
  81   0.0000       0.296007         8.0548 
  82   0.0000       0.337545         9.1851 
  83   0.0000       0.364805         9.9269 
  84   0.0000       0.375646        10.2218 
  85   0.0000       0.407069        11.0769 
  86   0.0000       0.425914        11.5897 
  87   0.0000       0.431599        11.7444 
  88   0.0000       0.435197        11.8423 
  89   0.0000       0.444025        12.0825 
  90   0.0000       0.451882        12.2963 
  91   0.0000       0.453945        12.3525 
  92   0.0000       0.458859        12.4862 
  93   0.0000       0.476392        12.9633 
  94   0.0000       0.483603        13.1595 
  95   0.0000       0.491861        13.3842 
  96   0.0000       0.508027        13.8241 
  97   0.0000       0.516479        14.0541 
  98   0.0000       0.522427        14.2160 
  99   0.0000       0.551810        15.0155 
 100   0.0000       0.583330        15.8732 
 101   0.0000       0.590190        16.0599 
 102   0.0000       0.602556        16.3964 
 103   0.0000       0.619105        16.8467 
 104   0.0000       0.625334        17.0162 
 105   0.0000       0.629299        17.1241 
 106   0.0000       0.643750        17.5173 
 107   0.0000       0.657297        17.8860 
 108   0.0000       0.667724        18.1697 
 109   0.0000       0.676439        18.4068 
 110   0.0000       0.682931        18.5835 
 111   0.0000       0.690044        18.7770 
 112   0.0000       0.698146        18.9975 
 113   0.0000       0.705896        19.2084 
 114   0.0000       0.727080        19.7849 
 115   0.0000       0.733238        19.9524 
 116   0.0000       0.741504        20.1773 
 117   0.0000       0.753069        20.4921 
 118   0.0000       0.759687        20.6721 
 119   0.0000       0.773345        21.0438 
 120   0.0000       0.787424        21.4269 
 121   0.0000       0.793799        21.6004 
 122   0.0000       0.800302        21.7773 
 123   0.0000       0.805978        21.9318 
 124   0.0000       0.824408        22.4333 
 125   0.0000       0.836814        22.7709 
 126   0.0000       0.847354        23.0577 
 127   0.0000       0.849507        23.1163 
 128   0.0000       0.858401        23.3583 
 129   0.0000       0.861324        23.4378 
 130   0.0000       0.867493        23.6057 
 131   0.0000       0.874554        23.7978 
 132   0.0000       0.882041        24.0016 
 133   0.0000       0.887181        24.1414 
 134   0.0000       0.893124        24.3031 
 135   0.0000       0.899405        24.4741 
 136   0.0000       0.904529        24.6135 
 137   0.0000       0.911467        24.8023 
 138   0.0000       0.917369        24.9629 
 139   0.0000       0.925421        25.1820 
 140   0.0000       0.934139        25.4192 
 141   0.0000       0.957845        26.0643 
 142   0.0000       0.960281        26.1306 
 143   0.0000       0.973614        26.4934 
 144   0.0000       0.975753        26.5516 
 145   0.0000       0.990119        26.9425 
 146   0.0000       0.992591        27.0098 
 147   0.0000       0.998232        27.1633 
 148   0.0000       1.020044        27.7568 
 149   0.0000       1.039434        28.2844 
 150   0.0000       1.056051        28.7366 
 151   0.0000       1.068138        29.0655 
 152   0.0000       1.077962        29.3328 
 153   0.0000       1.093196        29.7474 
 154   0.0000       1.104403        30.0523 
 155   0.0000       1.123733        30.5783 
 156   0.0000       1.135786        30.9063 
 157   0.0000       1.165033        31.7022 
 158   0.0000       1.194994        32.5174 
 159   0.0000       1.205107        32.7926 
 160   0.0000       1.225752        33.3544 
 161   0.0000       1.249843        34.0099 
 162   0.0000       1.268902        34.5286 
 163   0.0000       1.271506        34.5994 
 164   0.0000       1.295482        35.2519 
 165   0.0000       1.307967        35.5916 
 166   0.0000       1.318879        35.8885 
 167   0.0000       1.331219        36.2243 
 168   0.0000       1.348107        36.6838 
 169   0.0000       1.375110        37.4186 
 170   0.0000       1.409661        38.3588 
 171   0.0000       1.420684        38.6588 
 172   0.0000       1.440058        39.1860 
 173   0.0000       1.447426        39.3865 
 174   0.0000       1.451323        39.4925 
 175   0.0000       1.465997        39.8918 
 176   0.0000       1.485153        40.4131 
 177   0.0000       1.493035        40.6275 
 178   0.0000       1.499255        40.7968 
 179   0.0000       1.504499        40.9395 
 180   0.0000       1.513560        41.1861 
 181   0.0000       1.522804        41.4376 
 182   0.0000       1.536162        41.8011 
 183   0.0000       1.548150        42.1273 
 184   0.0000       1.564233        42.5649 
 185   0.0000       1.579640        42.9842 
 186   0.0000       1.584349        43.1123 
 187   0.0000       1.617211        44.0065 
 188   0.0000       1.625072        44.2204 
 189   0.0000       1.656251        45.0689 
 190   0.0000       1.675545        45.5939 
 191   0.0000       1.707810        46.4719 
 192   0.0000       1.725946        46.9654 
 193   0.0000       1.747236        47.5447 
 194   0.0000       1.769733        48.1569 
 195   0.0000       1.777523        48.3689 
 196   0.0000       1.795302        48.8527 
 197   0.0000       1.806043        49.1449 
 198   0.0000       1.826054        49.6895 
 199   0.0000       1.836523        49.9743 
 200   0.0000       1.890291        51.4374 
 201   0.0000       1.921675        52.2914 
 202   0.0000       1.936575        52.6969 
 203   0.0000       1.950780        53.0834 
 204   0.0000       1.959098        53.3098 
 205   0.0000       1.967592        53.5409 
 206   0.0000       1.977292        53.8048 
 207   0.0000       1.992040        54.2062 
 208   0.0000       2.008925        54.6656 
 209   0.0000       2.014573        54.8193 
 210   0.0000       2.025659        55.1210 
 211   0.0000       2.033503        55.3344 
 212   0.0000       2.042814        55.5878 
 213   0.0000       2.049477        55.7691 
 214   0.0000       2.051077        55.8127 
 215   0.0000       2.055563        55.9347 
 216   0.0000       2.057979        56.0005 
 217   0.0000       2.071242        56.3614 
 218   0.0000       2.075177        56.4684 
 219   0.0000       2.087412        56.8014 
 220   0.0000       2.089170        56.8492 
 221   0.0000       2.092552        56.9412 
 222   0.0000       2.104269        57.2601 
 223   0.0000       2.133645        58.0594 
 224   0.0000       2.142331        58.2958 
 225   0.0000       2.160497        58.7901 
 226   0.0000       2.171861        59.0994 
 227   0.0000       2.183123        59.4058 
 228   0.0000       2.194251        59.7086 
 229   0.0000       2.221288        60.4443 
 230   0.0000       2.228201        60.6324 
 231   0.0000       2.239273        60.9337 
 232   0.0000       2.260791        61.5192 
 233   0.0000       2.275914        61.9308 
 234   0.0000       2.280602        62.0583 
 235   0.0000       2.288896        62.2840 
 236   0.0000       2.302628        62.6577 
 237   0.0000       2.335177        63.5434 
 238   0.0000       2.348098        63.8950 
 239   0.0000       2.383569        64.8602 
 240   0.0000       2.417430        65.7816 
 241   0.0000       2.430562        66.1390 
 242   0.0000       2.440780        66.4170 
 243   0.0000       2.444949        66.5304 
 244   0.0000       2.474611        67.3376 
 245   0.0000       2.489860        67.7525 
 246   0.0000       2.500695        68.0474 
 247   0.0000       2.517237        68.4975 
 248   0.0000       2.522662        68.6451 
 249   0.0000       2.548422        69.3461 
 250   0.0000       2.568446        69.8910 
 251   0.0000       2.580966        70.2317 
 252   0.0000       2.593455        70.5715 
 253   0.0000       2.594966        70.6126 
 254   0.0000       2.619414        71.2779 
 255   0.0000       2.623039        71.3765 
 256   0.0000       2.629086        71.5411 
 257   0.0000       2.635754        71.7225 
 258   0.0000       2.638517        71.7977 
 259   0.0000       2.646061        72.0030 
 260   0.0000       2.654059        72.2206 
 261   0.0000       2.667393        72.5834 
 262   0.0000       2.683987        73.0350 
 263   0.0000       2.721380        74.0525 
 264   0.0000       2.768428        75.3328 
 265   0.0000       2.844225        77.3953 
 266   0.0000       2.851692        77.5985 
 267   0.0000       2.888291        78.5944 
 268   0.0000       2.923896        79.5633 
 269   0.0000       2.945151        80.1416 
 270   0.0000       2.952907        80.3527 
 271   0.0000       2.964713        80.6739 
 272   0.0000       2.973681        80.9180 
 273   0.0000       2.988390        81.3182 
 274   0.0000       2.997945        81.5782 
 275   0.0000       3.016156        82.0738 
 276   0.0000       3.077145        83.7334 
 277   0.0000       3.079769        83.8048 
 278   0.0000       3.082956        83.8915 
 279   0.0000       3.090248        84.0899 
 280   0.0000       3.108749        84.5934 
 281   0.0000       3.145312        85.5883 
 282   0.0000       3.171590        86.3034 
 283   0.0000       3.217067        87.5409 
 284   0.0000       3.224242        87.7361 
 285   0.0000       3.231861        87.9434 
 286   0.0000       3.233566        87.9898 
 287   0.0000       3.238337        88.1196 
 288   0.0000       3.262202        88.7690 
 289   0.0000       3.270172        88.9859 
 290   0.0000       3.310488        90.0830 
 291   0.0000       3.337899        90.8288 
 292   0.0000       3.347548        91.0914 
 293   0.0000       3.373123        91.7873 
 294   0.0000       3.411922        92.8431 
 295   0.0000       3.435256        93.4781 
 296   0.0000       3.472803        94.4998 
 297   0.0000       3.486348        94.8684 
 298   0.0000       3.516281        95.6829 
 299   0.0000       3.559320        96.8540 
 300   0.0000       3.584449        97.5378 
 301   0.0000       3.616362        98.4062 
 302   0.0000       3.713280       101.0435 
 303   0.0000       3.746156       101.9381 
 304   0.0000       3.817196       103.8712 
 305   0.0000       3.843152       104.5775 
 306   0.0000       3.925966       106.8310 
 307   0.0000       4.020987       109.4166 
 308   0.0000       4.044275       110.0503 
 309   0.0000       4.056939       110.3949 
 310   0.0000       4.180833       113.7662 
 311   0.0000       4.247122       115.5701 

                    ********************************
                    * MULLIKEN POPULATION ANALYSIS *
                    ********************************

-----------------------
MULLIKEN ATOMIC CHARGES
-----------------------
   0 C :    0.218587
   1 O :   -0.544979
   2 C :    0.419587
   3 C :   -0.243550
   4 C :    0.374901
   5 O :   -0.394893
   6 C :   -0.357972
   7 C :    0.476421
   8 O :   -0.462824
   9 C :   -0.166546
  10 C :    0.037790
  11 C :   -0.057538
  12 C :   -0.015196
  13 C :   -0.048996
  14 C :    0.025311
  15 C :    0.374632
  16 O :   -0.364163
  17 C :   -0.202127
  18 H :    0.054539
  19 H :    0.043071
  20 H :    0.042076
  21 H :    0.040839
  22 H :    0.256491
  23 H :    0.052136
  24 H :    0.043847
  25 H :    0.046942
  26 H :    0.046129
  27 H :    0.059825
  28 H :    0.219550
  29 H :    0.026108
Sum of atomic charges:   -0.0000000

--------------------------------
MULLIKEN REDUCED ORBITAL CHARGES
--------------------------------
  0 C s       :     3.023776  s :     3.023776
      pz      :     0.914299  p :     2.694876
      px      :     0.766856
      py      :     1.013721
      dz2     :     0.010919  d :     0.062761
      dxz     :     0.018132
      dyz     :     0.007908
      dx2y2   :     0.015841
      dxy     :     0.009962
  1 O s       :     3.796943  s :     3.796943
      pz      :     1.688924  p :     4.729728
      px      :     1.251312
      py      :     1.789492
      dz2     :     0.002137  d :     0.018307
      dxz     :     0.007505
      dyz     :     0.002174
      dx2y2   :     0.002573
      dxy     :     0.003919
  2 C s       :     2.923149  s :     2.923149
      pz      :     0.948128  p :     2.567033
      px      :     0.782103
      py      :     0.836802
      dz2     :     0.017765  d :     0.090231
      dxz     :     0.024729
      dyz     :     0.010964
      dx2y2   :     0.017179
      dxy     :     0.019594
  3 C s       :     3.276592  s :     3.276592
      pz      :     0.909056  p :     2.929304
      px      :     0.910806
      py      :     1.109442
      dz2     :     0.008687  d :     0.037654
      dxz     :     0.009571
      dyz     :     0.006269
      dx2y2   :     0.007093
      dxy     :     0.006035
  4 C s       :     2.987112  s :     2.987112
      pz      :     0.756520  p :     2.546933
      px      :     1.009100
      py      :     0.781313
      dz2     :     0.022601  d :     0.091055
      dxz     :     0.022279
      dyz     :     0.017457
      dx2y2   :     0.013702
      dxy     :     0.015017
  5 O s       :     3.726853  s :     3.726853
      pz      :     1.504618  p :     4.652916
      px      :     1.535026
      py      :     1.613273
      dz2     :     0.005553  d :     0.015124
      dxz     :     0.001537
      dyz     :     0.003898
      dx2y2   :     0.002076
      dxy     :     0.002060
  6 C s       :     3.061836  s :     3.061836
      pz      :     1.058969  p :     3.253391
      px      :     1.023941
      py      :     1.170480
      dz2     :     0.009450  d :     0.042744
      dxz     :     0.011727
      dyz     :     0.006780
      dx2y2   :     0.008247
      dxy     :     0.006541
  7 C s       :     3.051786  s :     3.051786
      pz      :     0.683318  p :     2.360863
      px      :     0.911900
      py      :     0.765645
      dz2     :     0.016266  d :     0.110930
      dxz     :     0.016427
      dyz     :     0.018322
      dx2y2   :     0.023904
      dxy     :     0.036011
  8 O s       :     3.812100  s :     3.812100
      pz      :     1.417343  p :     4.631756
      px      :     1.850619
      py      :     1.363795
      dz2     :     0.003663  d :     0.018967
      dxz     :     0.000903
      dyz     :     0.006517
      dx2y2   :     0.005287
      dxy     :     0.002597
  9 C s       :     3.030774  s :     3.030774
      pz      :     1.058044  p :     3.087179
      px      :     1.005938
      py      :     1.023197
      dz2     :     0.004501  d :     0.048593
      dxz     :     0.004325
      dyz     :     0.006835
      dx2y2   :     0.015527
      dxy     :     0.017405
 10 C s       :     3.136909  s :     3.136909
      pz      :     0.934976  p :     2.781571
      px      :     0.916309
      py      :     0.930286
      dz2     :     0.003725  d :     0.043730
      dxz     :     0.004704
      dyz     :     0.006893
      dx2y2   :     0.014315
      dxy     :     0.014093
 11 C s       :     3.132237  s :     3.132237
      pz      :     1.001788  p :     2.881981
      px      :     0.948537
      py      :     0.931656
      dz2     :     0.003742  d :     0.043319
      dxz     :     0.006998
      dyz     :     0.003360
      dx2y2   :     0.015011
      dxy     :     0.014208
 12 C s       :     3.129464  s :     3.129464
      pz      :     0.951565  p :     2.841394
      px      :     0.938797
      py      :     0.951032
      dz2     :     0.003730  d :     0.044338
      dxz     :     0.004338
      dyz     :     0.006841
      dx2y2   :     0.014457
      dxy     :     0.014974
 13 C s       :     3.130440  s :     3.130440
      pz      :     1.000131  p :     2.875203
      px      :     0.935315
      py      :     0.939757
      dz2     :     0.003636  d :     0.043352
      dxz     :     0.004306
      dyz     :     0.005976
      dx2y2   :     0.014575
      dxy     :     0.014859
 14 C s       :     3.165703  s :     3.165703
      pz      :     0.925529  p :     2.765322
      px      :     0.913795
      py      :     0.925998
      dz2     :     0.003857  d :     0.043664
      dxz     :     0.007772
      dyz     :     0.003456
      dx2y2   :     0.014356
      dxy     :     0.014222
 15 C s       :     2.995433  s :     2.995433
      pz      :     0.922696  p :     2.538671
      px      :     0.749974
      py      :     0.866001
      dz2     :     0.019636  d :     0.091264
      dxz     :     0.026649
      dyz     :     0.012558
      dx2y2   :     0.015212
      dxy     :     0.017210
 16 O s       :     3.723193  s :     3.723193
      pz      :     1.291799  p :     4.625679
      px      :     1.562797
      py      :     1.771083
      dz2     :     0.001471  d :     0.015291
      dxz     :     0.006352
      dyz     :     0.001647
      dx2y2   :     0.003325
      dxy     :     0.002496
 17 C s       :     3.244685  s :     3.244685
      pz      :     0.951631  p :     2.920097
      px      :     0.854853
      py      :     1.113614
      dz2     :     0.007049  d :     0.037345
      dxz     :     0.011551
      dyz     :     0.004259
      dx2y2   :     0.007374
      dxy     :     0.007112
 18 H s       :     0.920847  s :     0.920847
      pz      :     0.006771  p :     0.024614
      px      :     0.010907
      py      :     0.006936
 19 H s       :     0.931892  s :     0.931892
      pz      :     0.003701  p :     0.025036
      px      :     0.003144
      py      :     0.018191
 20 H s       :     0.932893  s :     0.932893
      pz      :     0.015508  p :     0.025031
      px      :     0.002247
      py      :     0.007276
 21 H s       :     0.932482  s :     0.932482
      pz      :     0.009355  p :     0.026678
      px      :     0.012328
      py      :     0.004995
 22 H s       :     0.667134  s :     0.667134
      pz      :     0.012024  p :     0.076374
      px      :     0.041916
      py      :     0.022435
 23 H s       :     0.921794  s :     0.921794
      pz      :     0.004247  p :     0.026070
      px      :     0.014379
      py      :     0.007444
 24 H s       :     0.930609  s :     0.930609
      pz      :     0.004066  p :     0.025544
      px      :     0.002425
      py      :     0.019052
 25 H s       :     0.927662  s :     0.927662
      pz      :     0.003902  p :     0.025396
      px      :     0.015248
      py      :     0.006245
 26 H s       :     0.928348  s :     0.928348
      pz      :     0.004185  p :     0.025523
      px      :     0.014384
      py      :     0.006954
 27 H s       :     0.914059  s :     0.914059
      pz      :     0.003722  p :     0.026116
      px      :     0.002532
      py      :     0.019862
 28 H s       :     0.709346  s :     0.709346
      pz      :     0.036024  p :     0.071103
      px      :     0.013896
      py      :     0.021183
 29 H s       :     0.947368  s :     0.947368
      pz      :     0.015145  p :     0.026524
      px      :     0.002937
      py      :     0.008443


                     *******************************
                     * LOEWDIN POPULATION ANALYSIS *
                     *******************************

----------------------
LOEWDIN ATOMIC CHARGES
----------------------
   0 C :    0.135069
   1 O :   -0.189020
   2 C :    0.154955
   3 C :   -0.149261
   4 C :    0.182937
   5 O :   -0.127053
   6 C :   -0.198566
   7 C :    0.204219
   8 O :   -0.266996
   9 C :   -0.073291
  10 C :    0.012894
  11 C :   -0.032747
  12 C :   -0.003438
  13 C :   -0.031339
  14 C :    0.024933
  15 C :    0.151098
  16 O :   -0.108070
  17 C :   -0.154112
  18 H :    0.022617
  19 H :    0.012572
  20 H :    0.012201
  21 H :    0.035249
  22 H :    0.091828
  23 H :    0.031349
  24 H :    0.028098
  25 H :    0.029221
  26 H :    0.028946
  27 H :    0.037804
  28 H :    0.109191
  29 H :    0.028710

-------------------------------
LOEWDIN REDUCED ORBITAL CHARGES
-------------------------------
  0 C s       :     2.835728  s :     2.835728
      pz      :     0.985525  p :     2.895208
      px      :     0.846095
      py      :     1.063588
      dz2     :     0.024755  d :     0.133995
      dxz     :     0.037365
      dyz     :     0.017640
      dx2y2   :     0.032456
      dxy     :     0.021779
  1 O s       :     3.446952  s :     3.446952
      pz      :     1.679557  p :     4.711759
      px      :     1.265339
      py      :     1.766863
      dz2     :     0.003427  d :     0.030309
      dxz     :     0.012118
      dyz     :     0.002530
      dx2y2   :     0.005439
      dxy     :     0.006795
  2 C s       :     2.830087  s :     2.830087
      pz      :     1.033254  p :     2.827355
      px      :     0.910539
      py      :     0.883562
      dz2     :     0.036481  d :     0.187603
      dxz     :     0.054104
      dyz     :     0.022570
      dx2y2   :     0.034931
      dxy     :     0.039516
  3 C s       :     2.844374  s :     2.844374
      pz      :     1.056983  p :     3.215747
      px      :     1.036808
      py      :     1.121957
      dz2     :     0.020139  d :     0.089140
      dxz     :     0.025347
      dyz     :     0.014091
      dx2y2   :     0.016284
      dxy     :     0.013277
  4 C s       :     2.829730  s :     2.829730
      pz      :     0.874442  p :     2.801205
      px      :     1.080730
      py      :     0.846033
      dz2     :     0.046558  d :     0.186128
      dxz     :     0.047414
      dyz     :     0.033705
      dx2y2   :     0.028139
      dxy     :     0.030313
  5 O s       :     3.427300  s :     3.427300
      pz      :     1.515128  p :     4.674522
      px      :     1.559027
      py      :     1.600367
      dz2     :     0.008913  d :     0.025230
      dxz     :     0.002240
      dyz     :     0.006394
      dx2y2   :     0.003445
      dxy     :     0.004238
  6 C s       :     2.837001  s :     2.837001
      pz      :     1.081356  p :     3.258925
      px      :     1.034034
      py      :     1.143535
      dz2     :     0.022715  d :     0.102640
      dxz     :     0.029763
      dyz     :     0.015728
      dx2y2   :     0.019443
      dxy     :     0.014991
  7 C s       :     2.856837  s :     2.856837
      pz      :     0.757725  p :     2.708708
      px      :     1.032466
      py      :     0.918517
      dz2     :     0.029140  d :     0.230235
      dxz     :     0.034475
      dyz     :     0.038669
      dx2y2   :     0.049995
      dxy     :     0.077956
  8 O s       :     3.546222  s :     3.546222
      pz      :     1.437635  p :     4.691027
      px      :     1.806651
      py      :     1.446740
      dz2     :     0.003919  d :     0.029748
      dxz     :     0.001696
      dyz     :     0.011177
      dx2y2   :     0.008620
      dxy     :     0.004337
  9 C s       :     2.846366  s :     2.846366
      pz      :     1.008105  p :     3.116364
      px      :     1.038897
      py      :     1.069361
      dz2     :     0.009104  d :     0.110561
      dxz     :     0.008259
      dyz     :     0.013265
      dx2y2   :     0.037756
      dxy     :     0.042177
 10 C s       :     2.852031  s :     2.852031
      pz      :     0.934796  p :     3.036511
      px      :     1.052674
      py      :     1.049042
      dz2     :     0.007050  d :     0.098563
      dxz     :     0.008206
      dyz     :     0.013392
      dx2y2   :     0.034043
      dxy     :     0.035873
 11 C s       :     2.851719  s :     2.851719
      pz      :     0.981812  p :     3.083589
      px      :     1.061529
      py      :     1.040248
      dz2     :     0.007258  d :     0.097440
      dxz     :     0.013786
      dyz     :     0.005143
      dx2y2   :     0.037478
      dxy     :     0.033775
 12 C s       :     2.855315  s :     2.855315
      pz      :     0.937343  p :     3.049258
      px      :     1.047441
      py      :     1.064474
      dz2     :     0.007104  d :     0.098865
      dxz     :     0.007458
      dyz     :     0.013154
      dx2y2   :     0.034607
      dxy     :     0.036542
 13 C s       :     2.851927  s :     2.851927
      pz      :     0.978274  p :     3.081884
      px      :     1.046248
      py      :     1.057363
      dz2     :     0.007008  d :     0.097528
      dxz     :     0.007349
      dyz     :     0.011361
      dx2y2   :     0.034952
      dxy     :     0.036858
 14 C s       :     2.852457  s :     2.852457
      pz      :     0.923202  p :     3.024574
      px      :     1.050639
      py      :     1.050734
      dz2     :     0.007320  d :     0.098036
      dxz     :     0.015283
      dyz     :     0.005410
      dx2y2   :     0.036539
      dxy     :     0.033483
 15 C s       :     2.830423  s :     2.830423
      pz      :     0.974407  p :     2.830629
      px      :     0.955071
      py      :     0.901150
      dz2     :     0.040106  d :     0.187851
      dxz     :     0.056455
      dyz     :     0.025441
      dx2y2   :     0.031881
      dxy     :     0.033968
 16 O s       :     3.418006  s :     3.418006
      pz      :     1.334753  p :     4.663413
      px      :     1.583343
      py      :     1.745317
      dz2     :     0.004132  d :     0.026651
      dxz     :     0.010867
      dyz     :     0.004011
      dx2y2   :     0.004479
      dxy     :     0.003163
 17 C s       :     2.847440  s :     2.847440
      pz      :     1.058872  p :     3.217653
      px      :     1.028793
      py      :     1.129988
      dz2     :     0.017086  d :     0.089019
      dxz     :     0.028827
      dyz     :     0.009288
      dx2y2   :     0.018084
      dxy     :     0.015735
 18 H s       :     0.913964  s :     0.913964
      pz      :     0.017882  p :     0.063418
      px      :     0.027706
      py      :     0.017831
 19 H s       :     0.922274  s :     0.922274
      pz      :     0.010874  p :     0.065153
      px      :     0.010768
      py      :     0.043511
 20 H s       :     0.922673  s :     0.922673
      pz      :     0.037892  p :     0.065126
      px      :     0.008404
      py      :     0.018830
 21 H s       :     0.890656  s :     0.890656
      pz      :     0.025114  p :     0.074095
      px      :     0.031120
      py      :     0.017861
 22 H s       :     0.703190  s :     0.703190
      pz      :     0.035736  p :     0.204982
      px      :     0.111994
      py      :     0.057252
 23 H s       :     0.899100  s :     0.899100
      pz      :     0.013802  p :     0.069551
      px      :     0.035047
      py      :     0.020702
 24 H s       :     0.903442  s :     0.903442
      pz      :     0.014158  p :     0.068460
      px      :     0.010290
      py      :     0.044011
 25 H s       :     0.902814  s :     0.902814
      pz      :     0.013351  p :     0.067965
      px      :     0.036444
      py      :     0.018170
 26 H s       :     0.902577  s :     0.902577
      pz      :     0.014411  p :     0.068477
      px      :     0.034541
      py      :     0.019525
 27 H s       :     0.892500  s :     0.892500
      pz      :     0.012651  p :     0.069696
      px      :     0.010166
      py      :     0.046878
 28 H s       :     0.713053  s :     0.713053
      pz      :     0.079977  p :     0.177756
      px      :     0.040921
      py      :     0.056858
 29 H s       :     0.898719  s :     0.898719
      pz      :     0.037339  p :     0.072571
      px      :     0.010279
      py      :     0.024953


                      *****************************
                      * MAYER POPULATION ANALYSIS *
                      *****************************

  NA   - Mulliken gross atomic population
  ZA   - Total nuclear charge
  QA   - Mulliken gross atomic charge
  VA   - Mayer's total valence
  BVA  - Mayer's bonded valence
  FA   - Mayer's free valence

  ATOM       NA         ZA         QA         VA         BVA        FA
  0 C      5.7814     6.0000     0.2186     3.8290     3.8290    -0.0000
  1 O      8.5450     8.0000    -0.5450     1.9210     1.9210     0.0000
  2 C      5.5804     6.0000     0.4196     3.7041     3.7041    -0.0000
  3 C      6.2436     6.0000    -0.2436     3.8110     3.8110     0.0000
  4 C      5.6251     6.0000     0.3749     4.0185     4.0185     0.0000
  5 O      8.3949     8.0000    -0.3949     2.0791     2.0791    -0.0000
  6 C      6.3580     6.0000    -0.3580     3.5936     3.5936     0.0000
  7 C      5.5236     6.0000     0.4764     3.8784     3.8784     0.0000
  8 O      8.4628     8.0000    -0.4628     1.9886     1.9886    -0.0000
  9 C      6.1665     6.0000    -0.1665     3.7938     3.7938     0.0000
 10 C      5.9622     6.0000     0.0378     3.9047     3.9047     0.0000
 11 C      6.0575     6.0000    -0.0575     3.8998     3.8998    -0.0000
 12 C      6.0152     6.0000    -0.0152     3.8600     3.8600    -0.0000
 13 C      6.0490     6.0000    -0.0490     3.8701     3.8701    -0.0000
 14 C      5.9747     6.0000     0.0253     3.9331     3.9331    -0.0000
 15 C      5.6254     6.0000     0.3746     3.9062     3.9062     0.0000
 16 O      8.3642     8.0000    -0.3642     2.0642     2.0642     0.0000
 17 C      6.2021     6.0000    -0.2021     3.8078     3.8078    -0.0000
 18 H      0.9455     1.0000     0.0545     0.9867     0.9867    -0.0000
 19 H      0.9569     1.0000     0.0431     0.9805     0.9805    -0.0000
 20 H      0.9579     1.0000     0.0421     0.9806     0.9806    -0.0000
 21 H      0.9592     1.0000     0.0408     1.0130     1.0130    -0.0000
 22 H      0.7435     1.0000     0.2565     1.0049     1.0049     0.0000
 23 H      0.9479     1.0000     0.0521     0.9926     0.9926     0.0000
 24 H      0.9562     1.0000     0.0438     0.9864     0.9864    -0.0000
 25 H      0.9531     1.0000     0.0469     0.9851     0.9851    -0.0000
 26 H      0.9539     1.0000     0.0461     0.9862     0.9862    -0.0000
 27 H      0.9402     1.0000     0.0598     1.0002     1.0002     0.0000
 28 H      0.7804     1.0000     0.2196     0.9848     0.9848    -0.0000
 29 H      0.9739     1.0000     0.0261     1.0106     1.0106    -0.0000

  Mayer bond orders larger than 0.100000
B(  0-C ,  1-O ) :   0.8562 B(  0-C , 18-H ) :   0.9926 B(  0-C , 19-H ) :   0.9860 
B(  0-C , 20-H ) :   0.9859 B(  1-O ,  2-C ) :   1.0249 B(  2-C ,  3-C ) :   1.3206 
B(  2-C , 17-C ) :   1.3453 B(  3-C ,  4-C ) :   1.3768 B(  3-C , 21-H ) :   1.0203 
B(  4-C ,  5-O ) :   1.1614 B(  4-C ,  6-C ) :   1.3350 B(  5-O , 22-H ) :   0.8991 
B(  6-C ,  7-C ) :   0.9558 B(  6-C , 15-C ) :   1.3370 B(  7-C ,  8-O ) :   1.8939 
B(  7-C ,  9-C ) :   0.9992 B(  9-C , 10-C ) :   1.3927 B(  9-C , 14-C ) :   1.4062 
B( 10-C , 11-C ) :   1.4355 B( 10-C , 23-H ) :   0.9944 B( 11-C , 12-C ) :   1.4116 
B( 11-C , 24-H ) :   0.9995 B( 12-C , 13-C ) :   1.4054 B( 12-C , 25-H ) :   0.9990 
B( 13-C , 14-C ) :   1.4239 B( 13-C , 26-H ) :   1.0006 B( 14-C , 27-H ) :   1.0001 
B( 15-C , 16-O ) :   1.0993 B( 15-C , 17-C ) :   1.3926 B( 16-O , 28-H ) :   0.9507 
B( 17-C , 29-H ) :   1.0112 

-------
TIMINGS
-------

Total SCF time: 0 days 0 hours 0 min 12 sec 

Total time                  ....      12.512 sec
Sum of individual times     ....      12.271 sec  ( 98.1%)

Fock matrix formation       ....      11.613 sec  ( 92.8%)
Diagonalization             ....       0.167 sec  (  1.3%)
Density matrix formation    ....       0.026 sec  (  0.2%)
Population analysis         ....       0.024 sec  (  0.2%)
Initial guess               ....       0.085 sec  (  0.7%)
Orbital Transformation      ....       0.000 sec  (  0.0%)
Orbital Orthonormalization  ....       0.000 sec  (  0.0%)
DIIS solution               ....       0.102 sec  (  0.8%)
SOSCF solution              ....       0.137 sec  (  1.1%)

Maximum memory used throughout the entire SCF-calculation: 234.5 MB

-------------------------   --------------------
FINAL SINGLE POINT ENERGY      -835.953304516870
-------------------------   --------------------


                            ***************************************
                            *     ORCA property calculations      *
                            ***************************************

                                    ---------------------
                                    Active property flags
                                    ---------------------
   (+) Dipole Moment


------------------------------------------------------------------------------
                       ORCA ELECTRIC PROPERTIES CALCULATION
------------------------------------------------------------------------------

Dipole Moment Calculation                       ... on
Quadrupole Moment Calculation                   ... off
Polarizability Calculation                      ... off
GBWName                                         ... ./ZINC000000000187/ZINC000000000187.gbw
Electron density                                ... ./ZINC000000000187/ZINC000000000187.scfp
The origin for moment calculation is the CENTER OF MASS  = (-0.124006,  0.351110  0.033159)

-------------
DIPOLE MOMENT
-------------
                                X             Y             Z
Electronic contribution:     -3.24299       3.80061      -0.48480
Nuclear contribution   :      3.50516      -4.95979       1.42776
                        -----------------------------------------
Total Dipole Moment    :      0.26217      -1.15918       0.94296
                        -----------------------------------------
Magnitude (a.u.)       :      1.51710
Magnitude (Debye)      :      3.85617



--------------------
Rotational spectrum 
--------------------
 
Rotational constants in cm-1:     0.032334     0.007783     0.006842 
Rotational constants in MHz :   969.335490   233.332949   205.109202 

 Dipole components along the rotational axes: 
x,y,z [a.u.] :     0.377584     1.460253    -0.163387 
x,y,z [Debye]:     0.959743     3.711669    -0.415297 

 

Timings for individual modules:

Sum of individual times         ...       13.153 sec (=   0.219 min)
GTO integral calculation        ...        0.410 sec (=   0.007 min)   3.1 %
SCF iterations                  ...       12.743 sec (=   0.212 min)  96.9 %
                             ****ORCA TERMINATED NORMALLY****
TOTAL RUN TIME: 0 days 0 hours 0 minutes 13 seconds 494 msec
