
                                 *****************
                                 * O   R   C   A *
                                 *****************

                                            #,                                       
                                            ###                                      
                                            ####                                     
                                            #####                                    
                                            ######                                   
                                           ########,                                 
                                     ,,################,,,,,                         
                               ,,#################################,,                 
                          ,,##########################################,,             
                       ,#########################################, ''#####,          
                    ,#############################################,,   '####,        
                  ,##################################################,,,,####,       
                ,###########''''           ''''###############################       
              ,#####''   ,,,,##########,,,,          '''####'''          '####       
            ,##' ,,,,###########################,,,                        '##       
           ' ,,###''''                  '''############,,,                           
         ,,##''                                '''############,,,,        ,,,,,,###''
      ,#''                                            '''#######################'''  
     '                                                          ''''####''''         
             ,#######,   #######,   ,#######,      ##                                
            ,#'     '#,  ##    ##  ,#'     '#,    #''#        ######   ,####,        
            ##       ##  ##   ,#'  ##            #'  '#       #        #'  '#        
            ##       ##  #######   ##           ,######,      #####,   #    #        
            '#,     ,#'  ##    ##  '#,     ,#' ,#      #,         ##   #,  ,#        
             '#######'   ##     ##  '#######'  #'      '#     #####' # '####'        



                  #######################################################
                  #                        -***-                        #
                  #          Department of theory and spectroscopy      #
                  #    Directorship and core code : Frank Neese         #
                  #        Max Planck Institute fuer Kohlenforschung    #
                  #                Kaiser Wilhelm Platz 1               #
                  #                 D-45470 Muelheim/Ruhr               #
                  #                      Germany                        #
                  #                                                     #
                  #                  All rights reserved                #
                  #                        -***-                        #
                  #######################################################


                         Program Version 5.0.3 -  RELEASE  -


 With contributions from (in alphabetic order):
   Daniel Aravena         : Magnetic Suceptibility
   Michael Atanasov       : Ab Initio Ligand Field Theory (pilot matlab implementation)
   Alexander A. Auer      : GIAO ZORA, VPT2 properties, NMR spectrum
   Ute Becker             : Parallelization
   Giovanni Bistoni       : ED, misc. LED, open-shell LED, HFLD
   Martin Brehm           : Molecular dynamics
   Dmytro Bykov           : SCF Hessian
   Vijay G. Chilkuri      : MRCI spin determinant printing, contributions to CSF-ICE
   Dipayan Datta          : RHF DLPNO-CCSD density
   Achintya Kumar Dutta   : EOM-CC, STEOM-CC
   Dmitry Ganyushin       : Spin-Orbit,Spin-Spin,Magnetic field MRCI
   Miquel Garcia          : C-PCM and meta-GGA Hessian, CC/C-PCM, Gaussian charge scheme
   Yang Guo               : DLPNO-NEVPT2, F12-NEVPT2, CIM, IAO-localization
   Andreas Hansen         : Spin unrestricted coupled pair/coupled cluster methods
   Benjamin Helmich-Paris : MC-RPA, TRAH-SCF, COSX integrals
   Lee Huntington         : MR-EOM, pCC
   Robert Izsak           : Overlap fitted RIJCOSX, COSX-SCS-MP3, EOM
   Marcus Kettner         : VPT2
   Christian Kollmar      : KDIIS, OOCD, Brueckner-CCSD(T), CCSD density, CASPT2, CASPT2-K
   Simone Kossmann        : Meta GGA functionals, TD-DFT gradient, OOMP2, MP2 Hessian
   Martin Krupicka        : Initial AUTO-CI
   Lucas Lang             : DCDCAS
   Marvin Lechner         : AUTO-CI (C++ implementation), FIC-MRCC
   Dagmar Lenk            : GEPOL surface, SMD
   Dimitrios Liakos       : Extrapolation schemes; Compound Job, initial MDCI parallelization
   Dimitrios Manganas     : Further ROCIS development; embedding schemes
   Dimitrios Pantazis     : SARC Basis sets
   Anastasios Papadopoulos: AUTO-CI, single reference methods and gradients
   Taras Petrenko         : DFT Hessian,TD-DFT gradient, ASA, ECA, R-Raman, ABS, FL, XAS/XES, NRVS
   Peter Pinski           : DLPNO-MP2, DLPNO-MP2 Gradient
   Christoph Reimann      : Effective Core Potentials
   Marius Retegan         : Local ZFS, SOC
   Christoph Riplinger    : Optimizer, TS searches, QM/MM, DLPNO-CCSD(T), (RO)-DLPNO pert. Triples
   Tobias Risthaus        : Range-separated hybrids, TD-DFT gradient, RPA, STAB
   Michael Roemelt        : Original ROCIS implementation
   Masaaki Saitow         : Open-shell DLPNO-CCSD energy and density
   Barbara Sandhoefer     : DKH picture change effects
   Avijit Sen             : IP-ROCIS
   Kantharuban Sivalingam : CASSCF convergence, NEVPT2, FIC-MRCI
   Bernardo de Souza      : ESD, SOC TD-DFT
   Georgi Stoychev        : AutoAux, RI-MP2 NMR, DLPNO-MP2 response
   Willem Van den Heuvel  : Paramagnetic NMR
   Boris Wezisla          : Elementary symmetry handling
   Frank Wennmohs         : Technical directorship


 We gratefully acknowledge several colleagues who have allowed us to
 interface, adapt or use parts of their codes:
   Stefan Grimme, W. Hujo, H. Kruse, P. Pracht,  : VdW corrections, initial TS optimization,
                  C. Bannwarth, S. Ehlert          DFT functionals, gCP, sTDA/sTD-DF
   Ed Valeev, F. Pavosevic, A. Kumar             : LibInt (2-el integral package), F12 methods
   Garnet Chan, S. Sharma, J. Yang, R. Olivares  : DMRG
   Ulf Ekstrom                                   : XCFun DFT Library
   Mihaly Kallay                                 : mrcc  (arbitrary order and MRCC methods)
   Jiri Pittner, Ondrej Demel                    : Mk-CCSD
   Frank Weinhold                                : gennbo (NPA and NBO analysis)
   Christopher J. Cramer and Donald G. Truhlar   : smd solvation model
   Lars Goerigk                                  : TD-DFT with DH, B97 family of functionals
   V. Asgeirsson, H. Jonsson                     : NEB implementation
   FAccTs GmbH                                   : IRC, NEB, NEB-TS, DLPNO-Multilevel, CI-OPT
                                                   MM, QMMM, 2- and 3-layer-ONIOM, Crystal-QMMM,
                                                   LR-CPCM, SF, NACMEs, symmetry and pop. for TD-DFT,
                                                   nearIR, NL-DFT gradient (VV10), updates on ESD,
                                                   ML-optimized integration grids
   S Lehtola, MJT Oliveira, MAL Marques          : LibXC Library
   Liviu Ungur et al                             : ANISO software


 Your calculation uses the libint2 library for the computation of 2-el integrals
 For citations please refer to: http://libint.valeyev.net

 Your ORCA version has been built with support for libXC version: 5.1.0
 For citations please refer to: https://tddft.org/programs/libxc/

 This ORCA versions uses:
   CBLAS   interface :  Fast vector & matrix operations
   LAPACKE interface :  Fast linear algebra routines
   SCALAPACK package :  Parallel linear algebra routines
   Shared memory     :  Shared parallel matrices
   BLAS/LAPACK       :  OpenBLAS 0.3.15  USE64BITINT DYNAMIC_ARCH NO_AFFINITY Zen SINGLE_THREADED
        Core in use  :  Zen
   Copyright (c) 2011-2014, The OpenBLAS Project


================================================================================

----- Orbital basis set information -----
Your calculation utilizes the basis: def2-SVP
   F. Weigend and R. Ahlrichs, Phys. Chem. Chem. Phys. 7, 3297 (2005).

================================================================================
                                        WARNINGS
                       Please study these warnings very carefully!
================================================================================


INFO   : the flag for use of the SHARK integral package has been found!

================================================================================
                                       INPUT FILE
================================================================================
NAME = ./ZINC000000000109/ZINC000000000109.inp
|  1> !RHF def2-SVP TightSCF PAL16 
|  2> *xyz 0 1
|  3> C -5.900473486674462 0.943642955688324 -0.4645097370437635
|  4> C -4.387845395734773 1.096127017711314 -0.6165066251002903
|  5> C -3.940893667740897 2.4624632520369754 -0.09898791063912336
|  6> C -3.6424558214176517 -0.026173518238512196 0.11433610880645956
|  7> O -4.215211032944822 -0.7780660588418874 0.8960078291134124
|  8> N -2.2968385136973004 -0.060370871036943184 -0.21432002496243688
|  9> C -1.3130954244693613 -0.9518345842775319 0.26108060613734196
| 10> C -1.5610929121728547 -1.981814866912786 1.166739186897572
| 11> C -0.5265846703102965 -2.827239689005904 1.5751840808310948
| 12> C 0.7664095573134635 -2.6457799054768434 1.0862896467632224
| 13> C 1.044998388547057 -1.6103561453274613 0.18368365372856968
| 14> C 2.4578168645292053 -1.415694366998573 -0.32427219888917147
| 15> C 3.4316904961698897 -0.9565887322904972 0.8061451784955609
| 16> N 4.3492844304615845 -0.1364030080269342 0.04788956118423709
| 17> C 5.0999450401222095 0.9517649725569445 0.641710636625965
| 18> C 5.636606196516867 1.7689042687031757 -0.5434830862894833
| 19> S 4.34678324520977 1.6360493951289452 -1.8417378315034254
| 20> C 3.674823358840099 0.2355425404624482 -1.0780183171212374
| 21> N 2.5863426451490703 -0.3803090757251907 -1.4193025201507177
| 22> C -0.008732043108470783 -0.7749349758473464 -0.22291135071955773
| 23> H -6.428954545585294 1.7129368153177642 -1.0372557387752528
| 24> H -6.231572091404339 -0.03471128822533304 -0.8295634631043022
| 25> H -6.208742217868676 1.0287320660747892 0.5834837763022267
| 26> H -4.14615735557248 1.0181878375276743 -1.6841863263995336
| 27> H -2.8726419464312767 2.628226253613079 -0.2722722687026841
| 28> H -4.115209312668116 2.5516835264637243 0.9791125276686273
| 29> H -4.4866750231372405 3.267887489084109 -0.6015951316159197
| 30> H -1.9750274235346208 0.6186046826253714 -0.8928769876131367
| 31> H -2.5525967063381048 -2.1618923254153195 1.5695341837561483
| 32> H -0.7377364750971274 -3.6330737109699918 2.27394912645999
| 33> H 1.551707126345172 -3.324580346443653 1.411512038021805
| 34> H 2.805005232100802 -2.3656679647507795 -0.7542058742167713
| 35> H 3.932586696745215 -1.8045105504091794 1.2830201429739192
| 36> H 2.9152037013248244 -0.3636757400599699 1.570798388765716
| 37> H 5.916899007684106 0.579634331143635 1.267725349776021
| 38> H 4.447254909404211 1.5760444578952715 1.264851586638697
| 39> H 6.5579597099288796 1.3234956128605058 -0.9323516056371906
| 40> H 5.827389875226624 2.810558739106648 -0.27271117376018744
| 41> H 0.19982958428885525 0.02319151027999456 -0.9330601911965906
| 42> *
| 43> 
| 44>                          ****END OF INPUT****
================================================================================

                       ****************************
                       * Single Point Calculation *
                       ****************************

---------------------------------
CARTESIAN COORDINATES (ANGSTROEM)
---------------------------------
  C     -5.900473    0.943643   -0.464510
  C     -4.387845    1.096127   -0.616507
  C     -3.940894    2.462463   -0.098988
  C     -3.642456   -0.026174    0.114336
  O     -4.215211   -0.778066    0.896008
  N     -2.296839   -0.060371   -0.214320
  C     -1.313095   -0.951835    0.261081
  C     -1.561093   -1.981815    1.166739
  C     -0.526585   -2.827240    1.575184
  C      0.766410   -2.645780    1.086290
  C      1.044998   -1.610356    0.183684
  C      2.457817   -1.415694   -0.324272
  C      3.431690   -0.956589    0.806145
  N      4.349284   -0.136403    0.047890
  C      5.099945    0.951765    0.641711
  C      5.636606    1.768904   -0.543483
  S      4.346783    1.636049   -1.841738
  C      3.674823    0.235543   -1.078018
  N      2.586343   -0.380309   -1.419303
  C     -0.008732   -0.774935   -0.222911
  H     -6.428955    1.712937   -1.037256
  H     -6.231572   -0.034711   -0.829563
  H     -6.208742    1.028732    0.583484
  H     -4.146157    1.018188   -1.684186
  H     -2.872642    2.628226   -0.272272
  H     -4.115209    2.551684    0.979113
  H     -4.486675    3.267887   -0.601595
  H     -1.975027    0.618605   -0.892877
  H     -2.552597   -2.161892    1.569534
  H     -0.737736   -3.633074    2.273949
  H      1.551707   -3.324580    1.411512
  H      2.805005   -2.365668   -0.754206
  H      3.932587   -1.804511    1.283020
  H      2.915204   -0.363676    1.570798
  H      5.916899    0.579634    1.267725
  H      4.447255    1.576044    1.264852
  H      6.557960    1.323496   -0.932352
  H      5.827390    2.810559   -0.272711
  H      0.199830    0.023192   -0.933060

----------------------------
CARTESIAN COORDINATES (A.U.)
----------------------------
  NO LB      ZA    FRAG     MASS         X           Y           Z
   0 C     6.0000    0    12.011  -11.150279    1.783227   -0.877796
   1 C     6.0000    0    12.011   -8.291826    2.071380   -1.165029
   2 C     6.0000    0    12.011   -7.447210    4.653381   -0.187060
   3 C     6.0000    0    12.011   -6.883244   -0.049461    0.216064
   4 O     8.0000    0    15.999   -7.965594   -1.470332    1.693209
   5 N     7.0000    0    14.007   -4.340396   -0.114084   -0.405006
   6 C     6.0000    0    12.011   -2.481391   -1.798707    0.493371
   7 C     6.0000    0    12.011   -2.950038   -3.745087    2.204818
   8 C     6.0000    0    12.011   -0.995101   -5.342709    2.976667
   9 C     6.0000    0    12.011    1.448304   -4.999799    2.052790
  10 C     6.0000    0    12.011    1.974761   -3.043132    0.347112
  11 C     6.0000    0    12.011    4.644601   -2.675275   -0.612786
  12 C     6.0000    0    12.011    6.484955   -1.807691    1.523394
  13 N     7.0000    0    14.007    8.218956   -0.257764    0.090498
  14 C     6.0000    0    12.011    9.637499    1.798575    1.212657
  15 C     6.0000    0    12.011   10.651642    3.342745   -1.027034
  16 S    16.0000    0    32.060    8.214230    3.091685   -3.480380
  17 C     6.0000    0    12.011    6.944410    0.445111   -2.037159
  18 N     7.0000    0    14.007    4.887479   -0.718680   -2.682093
  19 C     6.0000    0    12.011   -0.016501   -1.464415   -0.421241
  20 H     1.0000    0     1.008  -12.148963    3.236981   -1.960129
  21 H     1.0000    0     1.008  -11.775965   -0.065595   -1.567648
  22 H     1.0000    0     1.008  -11.732822    1.944022    1.102625
  23 H     1.0000    0     1.008   -7.835102    1.924096   -3.182651
  24 H     1.0000    0     1.008   -5.428507    4.966628   -0.514520
  25 H     1.0000    0     1.008   -7.776619    4.821983    1.850255
  26 H     1.0000    0     1.008   -8.478587    6.175412   -1.136850
  27 H     1.0000    0     1.008   -3.732261    1.168993   -1.687293
  28 H     1.0000    0     1.008   -4.823709   -4.085384    2.965990
  29 H     1.0000    0     1.008   -1.394120   -6.865514    4.297141
  30 H     1.0000    0     1.008    2.932302   -6.282546    2.667371
  31 H     1.0000    0     1.008    5.300692   -4.470465   -1.425243
  32 H     1.0000    0     1.008    7.431512   -3.410031    2.424557
  33 H     1.0000    0     1.008    5.508937   -0.687248    2.968379
  34 H     1.0000    0     1.008   11.181319    1.095350    2.395654
  35 H     1.0000    0     1.008    8.404094    2.978292    2.390223
  36 H     1.0000    0     1.008   12.392748    2.501044   -1.761889
  37 H     1.0000    0     1.008   11.012171    5.311186   -0.515349
  38 H     1.0000    0     1.008    0.377623    0.043826   -1.763228

--------------------------------
INTERNAL COORDINATES (ANGSTROEM)
--------------------------------
 C      0   0   0     0.000000000000     0.00000000     0.00000000
 C      1   0   0     1.527873746306     0.00000000     0.00000000
 C      2   1   0     1.527895995219   110.19162566     0.00000000
 C      2   1   3     1.532741078003   111.15837060   122.91459610
 O      4   2   1     1.226540502093   121.71190464   348.21154144
 N      4   2   1     1.385593826501   112.16361118   168.52802592
 C      6   4   2     1.410128993276   127.81654727   180.04752534
 C      7   6   4     1.393764543038   124.20222360     0.40740039
 C      8   7   6     1.397060365078   120.35878659   179.41313351
 C      9   8   7     1.394194926604   120.36169043     0.31218665
 C     10   9   8     1.401574713896   120.41890323     0.25108671
 C     11  10   9     1.513924833744   119.77257027   179.22154451
 C     12  11  10     1.561105787997   112.14992269   292.85734299
 N     13  12  11     1.445556927872   100.54602200   211.98510762
 C     14  13  12     1.449215089110   122.67632541   153.69889126
 C     15  14  13     1.536361281381   105.31931950   194.62837923
 S     16  15  14     1.834873032834   105.17485316    33.34998262
 C     14  13  12     1.364151669942   105.89011201    22.10987401
 N     18  14  13     1.296355809366   120.19159014   344.76902037
 C      7   6   4     1.402464087383   116.91978324   180.27971648
 H      1   2   3     1.095053996199   110.83310730    60.44669850
 H      1   2   3     1.095475940196   110.80606238   180.20033443
 H      1   2   3     1.095700767251   111.46528066   300.05265852
 H      2   1   3     1.097464153916   107.92198249   240.86163055
 H      3   2   1     1.094836326362   111.54363920   184.65822121
 H      3   2   1     1.095740277855   111.07186433    64.91125690
 H      3   2   1     1.095079681164   110.88354990   304.55735273
 H      6   4   2     1.012427642740   116.81511127   358.49592759
 H      8   7   6     1.085242587811   121.76000748     0.00000000
 H      9   8   7     1.087302232414   119.51023702   180.66338328
 H     10   9   8     1.087764641069   118.91234527   180.67525934
 H     12  11  10     1.099014360317   108.35620589    54.34410921
 H     13  12  11     1.094202058643   111.91688089    92.70837996
 H     13  12  11     1.096813091452   111.71795251   329.76024284
 H     15  14  13     1.094435663013   111.45177313    73.95155684
 H     15  14  13     1.097284797185   110.59642887   313.52060353
 H     16  15  14     1.094760198727   110.58541423   276.87020885
 H     16  15  14     1.093050719952   112.13110444   154.73406720
 H     20   7   6     1.088492175402   119.72514244   359.93226100

---------------------------
INTERNAL COORDINATES (A.U.)
---------------------------
 C      0   0   0     0.000000000000     0.00000000     0.00000000
 C      1   0   0     2.887262947726     0.00000000     0.00000000
 C      2   1   0     2.887304992078   110.19162566     0.00000000
 C      2   1   3     2.896460871637   111.15837060   122.91459610
 O      4   2   1     2.317825641118   121.71190464   348.21154144
 N      4   2   1     2.618392864940   112.16361118   168.52802592
 C      6   4   2     2.664757610794   127.81654727   180.04752534
 C      7   6   4     2.633833281511   124.20222360     0.40740039
 C      8   7   6     2.640061482554   120.35878659   179.41313351
 C      9   8   7     2.634646588585   120.36169043     0.31218665
 C     10   9   8     2.648592365492   120.41890323     0.25108671
 C     11  10   9     2.860903323119   119.77257027   179.22154451
 C     12  11  10     2.950062405394   112.14992269   292.85734299
 N     13  12  11     2.731706704671   100.54602200   211.98510762
 C     14  13  12     2.738619627563   122.67632541   153.69889126
 C     15  14  13     2.903302064571   105.31931950   194.62837923
 S     16  15  14     3.467407522574   105.17485316    33.34998262
 C     14  13  12     2.577873061321   105.89011201    22.10987401
 N     18  14  13     2.449757451819   120.19159014   344.76902037
 C      7   6   4     2.650273037814   116.91978324   180.27971648
 H      1   2   3     2.069352154671   110.83310730    60.44669850
 H      1   2   3     2.070149513271   110.80606238   180.20033443
 H      1   2   3     2.070574374831   111.46528066   300.05265852
 H      2   1   3     2.073906692698   107.92198249   240.86163055
 H      3   2   1     2.068940818293   111.54363920   184.65822121
 H      3   2   1     2.070649039053   111.07186433    64.91125690
 H      3   2   1     2.069400692223   110.88354990   304.55735273
 H      6   4   2     1.913210975190   116.81511127   358.49592759
 H      8   7   6     2.050811279831   121.76000748     0.00000000
 H      9   8   7     2.054703444064   119.51023702   180.66338328
 H     10   9   8     2.055577269783   118.91234527   180.67525934
 H     12  11  10     2.076836158247   108.35620589    54.34410921
 H     13  12  11     2.067742226008   111.91688089    92.70837996
 H     13  12  11     2.072676362945   111.71795251   329.76024284
 H     15  14  13     2.068183674291   111.45177313    73.95155684
 H     15  14  13     2.073567757595   110.59642887   313.52060353
 H     16  15  14     2.068796957910   110.58541423   276.87020885
 H     16  15  14     2.065566511195   112.13110444   154.73406720
 H     20   7   6     2.056952110426   119.72514244   359.93226100

---------------------
BASIS SET INFORMATION
---------------------
There are 5 groups of distinct atoms

 Group   1 Type C   : 7s4p1d contracted to 3s2p1d pattern {511/31/1}
 Group   2 Type O   : 7s4p1d contracted to 3s2p1d pattern {511/31/1}
 Group   3 Type N   : 7s4p1d contracted to 3s2p1d pattern {511/31/1}
 Group   4 Type S   : 10s7p1d contracted to 4s3p1d pattern {5311/511/1}
 Group   5 Type H   : 4s1p contracted to 2s1p pattern {31/1}

Atom   0C    basis set group =>   1
Atom   1C    basis set group =>   1
Atom   2C    basis set group =>   1
Atom   3C    basis set group =>   1
Atom   4O    basis set group =>   2
Atom   5N    basis set group =>   3
Atom   6C    basis set group =>   1
Atom   7C    basis set group =>   1
Atom   8C    basis set group =>   1
Atom   9C    basis set group =>   1
Atom  10C    basis set group =>   1
Atom  11C    basis set group =>   1
Atom  12C    basis set group =>   1
Atom  13N    basis set group =>   3
Atom  14C    basis set group =>   1
Atom  15C    basis set group =>   1
Atom  16S    basis set group =>   4
Atom  17C    basis set group =>   1
Atom  18N    basis set group =>   3
Atom  19C    basis set group =>   1
Atom  20H    basis set group =>   5
Atom  21H    basis set group =>   5
Atom  22H    basis set group =>   5
Atom  23H    basis set group =>   5
Atom  24H    basis set group =>   5
Atom  25H    basis set group =>   5
Atom  26H    basis set group =>   5
Atom  27H    basis set group =>   5
Atom  28H    basis set group =>   5
Atom  29H    basis set group =>   5
Atom  30H    basis set group =>   5
Atom  31H    basis set group =>   5
Atom  32H    basis set group =>   5
Atom  33H    basis set group =>   5
Atom  34H    basis set group =>   5
Atom  35H    basis set group =>   5
Atom  36H    basis set group =>   5
Atom  37H    basis set group =>   5
Atom  38H    basis set group =>   5


           ************************************************************
           *        Program running with 16 parallel MPI-processes    *
           *              working on a common directory               *
           ************************************************************
------------------------------------------------------------------------------
                           ORCA GTO INTEGRAL CALCULATION
------------------------------------------------------------------------------
------------------------------------------------------------------------------
                   ___                                                        
                  /   \      - P O W E R E D   B Y -                         
                 /     \                                                     
                 |  |  |   _    _      __       _____    __    __             
                 |  |  |  | |  | |    /  \     |  _  \  |  |  /  |          
                  \  \/   | |  | |   /    \    | | | |  |  | /  /          
                 / \  \   | |__| |  /  /\  \   | |_| |  |  |/  /          
                |  |  |   |  __  | /  /__\  \  |    /   |      \           
                |  |  |   | |  | | |   __   |  |    \   |  |\   \          
                \     /   | |  | | |  |  |  |  | |\  \  |  | \   \       
                 \___/    |_|  |_| |__|  |__|  |_| \__\ |__|  \__/        
                                                                              
                      - O R C A' S   B I G   F R I E N D -                    
                                      &                                       
                       - I N T E G R A L  F E E D E R -                       
                                                                              
 v1 FN, 2020, v2 2021                                                         
------------------------------------------------------------------------------


Reading SHARK input file ./ZINC000000000109/ZINC000000000109.SHARKINP.tmp ... ok
----------------------
SHARK INTEGRAL PACKAGE
----------------------

Number of atoms                             ...     39
Number of basis functions                   ...    379
Number of shells                            ...    179
Maximum angular momentum                    ...      2
Integral batch strategy                     ... SHARK/LIBINT Hybrid
RI-J (if used) integral strategy            ... SPLIT-RIJ (Revised 2003 algorithm where possible)
Printlevel                                  ...      1
Contraction scheme used                     ... SEGMENTED contraction
Coulomb Range Separation                    ... NOT USED
Exchange Range Separation                   ... NOT USED
Finite Nucleus Model                        ... NOT USED
Auxiliary Coulomb fitting basis             ... NOT available
Auxiliary J/K fitting basis                 ... NOT available
Auxiliary Correlation fitting basis         ... NOT available
Auxiliary 'external' fitting basis          ... NOT available
Integral threshold                          ...     2.500000e-11
Primitive cut-off                           ...     2.500000e-12
Primitive pair pre-selection threshold      ...     2.500000e-12

Calculating pre-screening integrals         ... done (  0.0 sec) Dimension = 179
Organizing shell pair data                  ... done (  0.0 sec)
Shell pair information
Total number of shell pairs                 ...     16110
Shell pairs after pre-screening             ...     10802
Total number of primitive shell pairs       ...     58638
Primitive shell pairs kept                  ...     25458
          la=0 lb=0:   3415 shell pairs
          la=1 lb=0:   4049 shell pairs
          la=1 lb=1:   1237 shell pairs
          la=2 lb=0:   1246 shell pairs
          la=2 lb=1:    735 shell pairs
          la=2 lb=2:    120 shell pairs

Calculating one electron integrals          ... done (  0.0 sec)
Calculating Nuclear repulsion               ... done (  0.0 sec) ENN=   1600.796472602770 Eh

SHARK setup successfully completed in   0.2 seconds

Maximum memory used throughout the entire GTOINT-calculation: 16.8 MB


           ************************************************************
           *        Program running with 16 parallel MPI-processes    *
           *              working on a common directory               *
           ************************************************************
-------------------------------------------------------------------------------
                                 ORCA SCF
-------------------------------------------------------------------------------

------------
SCF SETTINGS
------------
Hamiltonian:
 Ab initio Hamiltonian  Method          .... Hartree-Fock(GTOs)


General Settings:
 Integral files         IntName         .... ./ZINC000000000109/ZINC000000000109
 Hartree-Fock type      HFTyp           .... RHF
 Total Charge           Charge          ....    0
 Multiplicity           Mult            ....    1
 Number of Electrons    NEL             ....  154
 Basis Dimension        Dim             ....  379
 Nuclear Repulsion      ENuc            ....   1600.7964726028 Eh

Convergence Acceleration:
 DIIS                   CNVDIIS         .... on
   Start iteration      DIISMaxIt       ....    12
   Startup error        DIISStart       ....  0.200000
   # of expansion vecs  DIISMaxEq       ....     5
   Bias factor          DIISBfac        ....   1.050
   Max. coefficient     DIISMaxC        ....  10.000
 Trust-Rad. Augm. Hess. CNVTRAH         .... auto
   Auto Start mean grad. ratio tolernc. ....  1.125000
   Auto Start start iteration           ....    20
   Auto Start num. interpolation iter.  ....    10
   Max. Number of Micro iterations      ....    16
   Max. Number of Macro iterations      .... Maxiter - #DIIS iter
   Number of Davidson start vectors     ....     2
   Converg. threshold I  (grad. norm)   ....   1.000e-05
   Converg. threshold II (energy diff.) ....   1.000e-08
   Grad. Scal. Fac. for Micro threshold ....   0.100
   Minimum threshold for Micro iter.    ....   0.010
   NR start threshold (gradient norm)   ....   0.001
   Initial trust radius                 ....   0.400
   Minimum AH scaling param. (alpha)    ....   1.000
   Maximum AH scaling param. (alpha)    .... 1000.000
   Orbital update algorithm             .... Taylor
   White noise on init. David. guess    .... on
   Maximum white noise                  ....   0.010
   Quad. conv. algorithm                .... NR
 SOSCF                  CNVSOSCF        .... on
   Start iteration      SOSCFMaxIt      ....   150
   Startup grad/error   SOSCFStart      ....  0.003300
 Level Shifting         CNVShift        .... on
   Level shift para.    LevelShift      ....    0.2500
   Turn off err/grad.   ShiftErr        ....    0.0010
 Zerner damping         CNVZerner       .... off
 Static damping         CNVDamp         .... on
   Fraction old density DampFac         ....    0.7000
   Max. Damping (<1)    DampMax         ....    0.9800
   Min. Damping (>=0)   DampMin         ....    0.0000
   Turn off err/grad.   DampErr         ....    0.1000
 Fernandez-Rico         CNVRico         .... off

SCF Procedure:
 Maximum # iterations   MaxIter         ....   125
 SCF integral mode      SCFMode         .... Direct
   Integral package                     .... SHARK and LIBINT hybrid scheme
 Reset frequency        DirectResetFreq ....    20
 Integral Threshold     Thresh          ....  2.500e-11 Eh
 Primitive CutOff       TCut            ....  2.500e-12 Eh

Convergence Tolerance:
 Convergence Check Mode ConvCheckMode   .... Total+1el-Energy
 Convergence forced     ConvForced      .... 0
 Energy Change          TolE            ....  1.000e-08 Eh
 1-El. energy change                    ....  1.000e-05 Eh
 Orbital Gradient       TolG            ....  1.000e-05
 Orbital Rotation angle TolX            ....  1.000e-05
 DIIS Error             TolErr          ....  5.000e-07


Diagonalization of the overlap matrix:
Smallest eigenvalue                        ... 2.588e-04
Time for diagonalization                   ...    0.017 sec
Threshold for overlap eigenvalues          ... 1.000e-08
Number of eigenvalues below threshold      ... 0
Time for construction of square roots      ...    0.014 sec
Total time needed                          ...    0.032 sec

Time for model grid setup =    0.163 sec

------------------------------
INITIAL GUESS: MODEL POTENTIAL
------------------------------
Loading Hartree-Fock densities                     ... done
Calculating cut-offs                               ... done
Initializing the effective Hamiltonian             ... done
Setting up the integral package (SHARK)            ... done
Starting the Coulomb interaction                   ... done (   0.1 sec)
Reading the grid                                   ... done
Mapping shells                                     ... done
Starting the XC term evaluation                    ... done (   0.0 sec)
Transforming the Hamiltonian                       ... done (   0.0 sec)
Diagonalizing the Hamiltonian                      ... done (   0.0 sec)
Back transforming the eigenvectors                 ... done (   0.0 sec)
Now organizing SCF variables                       ... done
                      ------------------
                      INITIAL GUESS DONE (   0.3 sec)
                      ------------------
--------------
SCF ITERATIONS
--------------
ITER       Energy         Delta-E        Max-DP      RMS-DP      [F,P]     Damp
               ***  Starting incremental Fock matrix formation  ***
  0  -1213.3927780471   0.000000000000 0.06703817  0.00173952  0.2355504 0.7000
  1  -1213.6359516625  -0.243173615378 0.05293163  0.00135495  0.1404113 0.7000
                               ***Turning on DIIS***
  2  -1213.7850265732  -0.149074910676 0.13039213  0.00310276  0.0764628 0.0000
  3  -1212.8621897995   0.922836773682 0.04387360  0.00073917  0.0492276 0.0000
  4  -1214.1367647387  -1.274574939208 0.01031777  0.00027039  0.0086045 0.0000
  5  -1214.1061928391   0.030571899556 0.00611110  0.00012770  0.0069893 0.0000
                      *** Initiating the SOSCF procedure ***
                           *** Shutting down DIIS ***
                      *** Re-Reading the Fockian *** 
                      *** Removing any level shift *** 
ITER      Energy       Delta-E        Grad      Rot      Max-DP    RMS-DP
  6  -1214.09487113   0.0113217109  0.001855  0.001855  0.002828  0.000064
               *** Restarting incremental Fock matrix formation ***
  7  -1214.10074676  -0.0058756325  0.000930  0.001807  0.001439  0.000034
  8  -1214.10077638  -0.0000296219  0.000427  0.001912  0.002011  0.000037
  9  -1214.10078678  -0.0000103999  0.000112  0.000132  0.000441  0.000006
 10  -1214.10078773  -0.0000009452  0.000049  0.000054  0.000128  0.000002
 11  -1214.10078789  -0.0000001627  0.000013  0.000032  0.000056  0.000001
 12  -1214.10078792  -0.0000000272  0.000007  0.000026  0.000029  0.000000
                  ***Gradient check signals convergence***
              ***Rediagonalizing the Fockian in SOSCF/NRSCF***

               *****************************************************
               *                     SUCCESS                       *
               *           SCF CONVERGED AFTER  13 CYCLES          *
               *****************************************************


----------------
TOTAL SCF ENERGY
----------------

Total Energy       :        -1214.10078792 Eh          -33037.36203 eV

Components:
Nuclear Repulsion  :         1600.79647260 Eh           43559.88656 eV
Electronic Energy  :        -2814.89726052 Eh          -76597.24859 eV
One Electron Energy:        -4841.23162972 Eh         -131736.61000 eV
Two Electron Energy:         2026.33436920 Eh           55139.36142 eV

Virial components:
Potential Energy   :        -2424.15631245 Eh          -65964.64684 eV
Kinetic Energy     :         1210.05552453 Eh           32927.28481 eV
Virial Ratio       :            2.00334304


---------------
SCF CONVERGENCE
---------------

  Last Energy change         ...   -2.2014e-09  Tolerance :   1.0000e-08
  Last MAX-Density change    ...    7.1194e-06  Tolerance :   1.0000e-07
  Last RMS-Density change    ...    1.1960e-07  Tolerance :   5.0000e-09
  Last Orbital Gradient      ...    2.2429e-06  Tolerance :   1.0000e-05
  Last Orbital Rotation      ...    5.0931e-06  Tolerance :   1.0000e-05

             **** THE GBW FILE WAS UPDATED (./ZINC000000000109/ZINC000000000109.gbw) ****
             **** DENSITY ./ZINC000000000109/ZINC000000000109.scfp WAS UPDATED ****
             **** ENERGY FILE WAS UPDATED (./ZINC000000000109/ZINC000000000109.en.tmp) ****
             **** THE GBW FILE WAS UPDATED (./ZINC000000000109/ZINC000000000109.gbw) ****
             **** DENSITY ./ZINC000000000109/ZINC000000000109.scfp WAS UPDATED ****
----------------
ORBITAL ENERGIES
----------------

  NO   OCC          E(Eh)            E(eV) 
   0   2.0000     -91.937965     -2501.7592 
   1   2.0000     -20.521455      -558.4172 
   2   2.0000     -15.600311      -424.5060 
   3   2.0000     -15.590190      -424.2307 
   4   2.0000     -15.536933      -422.7814 
   5   2.0000     -11.358067      -309.0687 
   6   2.0000     -11.337025      -308.4961 
   7   2.0000     -11.296939      -307.4053 
   8   2.0000     -11.287865      -307.1584 
   9   2.0000     -11.283411      -307.0372 
  10   2.0000     -11.277467      -306.8755 
  11   2.0000     -11.270946      -306.6980 
  12   2.0000     -11.246568      -306.0347 
  13   2.0000     -11.242746      -305.9307 
  14   2.0000     -11.237027      -305.7751 
  15   2.0000     -11.234752      -305.7131 
  16   2.0000     -11.228356      -305.5391 
  17   2.0000     -11.226532      -305.4895 
  18   2.0000     -11.220173      -305.3164 
  19   2.0000     -11.220057      -305.3133 
  20   2.0000      -8.975922      -244.2473 
  21   2.0000      -6.663450      -181.3217 
  22   2.0000      -6.662325      -181.2911 
  23   2.0000      -6.659894      -181.2249 
  24   2.0000      -1.364724       -37.1360 
  25   2.0000      -1.330462       -36.2037 
  26   2.0000      -1.238592       -33.7038 
  27   2.0000      -1.179728       -32.1020 
  28   2.0000      -1.130010       -30.7491 
  29   2.0000      -1.097398       -29.8617 
  30   2.0000      -1.076428       -29.2911 
  31   2.0000      -1.029659       -28.0184 
  32   2.0000      -0.996578       -27.1183 
  33   2.0000      -0.978213       -26.6185 
  34   2.0000      -0.959737       -26.1158 
  35   2.0000      -0.927619       -25.2418 
  36   2.0000      -0.876435       -23.8490 
  37   2.0000      -0.861890       -23.4532 
  38   2.0000      -0.845579       -23.0094 
  39   2.0000      -0.815258       -22.1843 
  40   2.0000      -0.797215       -21.6933 
  41   2.0000      -0.749600       -20.3977 
  42   2.0000      -0.732855       -19.9420 
  43   2.0000      -0.714273       -19.4364 
  44   2.0000      -0.701194       -19.0805 
  45   2.0000      -0.685986       -18.6666 
  46   2.0000      -0.672705       -18.3052 
  47   2.0000      -0.663464       -18.0538 
  48   2.0000      -0.641256       -17.4495 
  49   2.0000      -0.631312       -17.1789 
  50   2.0000      -0.619610       -16.8605 
  51   2.0000      -0.615664       -16.7531 
  52   2.0000      -0.600461       -16.3394 
  53   2.0000      -0.592661       -16.1271 
  54   2.0000      -0.585739       -15.9388 
  55   2.0000      -0.575347       -15.6560 
  56   2.0000      -0.569971       -15.5097 
  57   2.0000      -0.554829       -15.0977 
  58   2.0000      -0.549920       -14.9641 
  59   2.0000      -0.547435       -14.8965 
  60   2.0000      -0.543670       -14.7940 
  61   2.0000      -0.524467       -14.2715 
  62   2.0000      -0.521208       -14.1828 
  63   2.0000      -0.512570       -13.9477 
  64   2.0000      -0.508435       -13.8352 
  65   2.0000      -0.496358       -13.5066 
  66   2.0000      -0.489544       -13.3212 
  67   2.0000      -0.485919       -13.2225 
  68   2.0000      -0.480993       -13.0885 
  69   2.0000      -0.472149       -12.8478 
  70   2.0000      -0.433940       -11.8081 
  71   2.0000      -0.424283       -11.5453 
  72   2.0000      -0.414904       -11.2901 
  73   2.0000      -0.379489       -10.3264 
  74   2.0000      -0.339013        -9.2250 
  75   2.0000      -0.326049        -8.8722 
  76   2.0000      -0.302247        -8.2246 
  77   0.0000       0.129565         3.5256 
  78   0.0000       0.137861         3.7514 
  79   0.0000       0.156698         4.2640 
  80   0.0000       0.160271         4.3612 
  81   0.0000       0.170365         4.6359 
  82   0.0000       0.175698         4.7810 
  83   0.0000       0.193822         5.2742 
  84   0.0000       0.197929         5.3859 
  85   0.0000       0.204823         5.5735 
  86   0.0000       0.208050         5.6613 
  87   0.0000       0.219041         5.9604 
  88   0.0000       0.220110         5.9895 
  89   0.0000       0.225242         6.1292 
  90   0.0000       0.244383         6.6500 
  91   0.0000       0.247711         6.7405 
  92   0.0000       0.249571         6.7912 
  93   0.0000       0.256204         6.9717 
  94   0.0000       0.262467         7.1421 
  95   0.0000       0.268606         7.3092 
  96   0.0000       0.274719         7.4755 
  97   0.0000       0.286292         7.7904 
  98   0.0000       0.293323         7.9817 
  99   0.0000       0.301717         8.2101 
 100   0.0000       0.305921         8.3245 
 101   0.0000       0.316582         8.6146 
 102   0.0000       0.324223         8.8226 
 103   0.0000       0.346907         9.4398 
 104   0.0000       0.359430         9.7806 
 105   0.0000       0.370474        10.0811 
 106   0.0000       0.379657        10.3310 
 107   0.0000       0.382012        10.3951 
 108   0.0000       0.398434        10.8419 
 109   0.0000       0.409561        11.1447 
 110   0.0000       0.424380        11.5480 
 111   0.0000       0.430677        11.7193 
 112   0.0000       0.444551        12.0968 
 113   0.0000       0.449285        12.2257 
 114   0.0000       0.452320        12.3083 
 115   0.0000       0.471928        12.8418 
 116   0.0000       0.492451        13.4003 
 117   0.0000       0.499771        13.5995 
 118   0.0000       0.511014        13.9054 
 119   0.0000       0.527627        14.3574 
 120   0.0000       0.547191        14.8898 
 121   0.0000       0.559070        15.2131 
 122   0.0000       0.571626        15.5547 
 123   0.0000       0.574434        15.6311 
 124   0.0000       0.583823        15.8866 
 125   0.0000       0.591977        16.1085 
 126   0.0000       0.610260        16.6060 
 127   0.0000       0.614694        16.7267 
 128   0.0000       0.628566        17.1042 
 129   0.0000       0.632693        17.2164 
 130   0.0000       0.644833        17.5468 
 131   0.0000       0.658512        17.9190 
 132   0.0000       0.661223        17.9928 
 133   0.0000       0.668669        18.1954 
 134   0.0000       0.680057        18.5053 
 135   0.0000       0.692533        18.8448 
 136   0.0000       0.694688        18.9034 
 137   0.0000       0.696416        18.9504 
 138   0.0000       0.704757        19.1774 
 139   0.0000       0.712201        19.3800 
 140   0.0000       0.723140        19.6777 
 141   0.0000       0.751666        20.4539 
 142   0.0000       0.753049        20.4915 
 143   0.0000       0.776098        21.1187 
 144   0.0000       0.779936        21.2232 
 145   0.0000       0.801814        21.8185 
 146   0.0000       0.805157        21.9094 
 147   0.0000       0.810178        22.0461 
 148   0.0000       0.817524        22.2460 
 149   0.0000       0.828440        22.5430 
 150   0.0000       0.830888        22.6096 
 151   0.0000       0.834169        22.6989 
 152   0.0000       0.839659        22.8483 
 153   0.0000       0.847184        23.0531 
 154   0.0000       0.849838        23.1253 
 155   0.0000       0.857433        23.3319 
 156   0.0000       0.858219        23.3533 
 157   0.0000       0.868703        23.6386 
 158   0.0000       0.871214        23.7069 
 159   0.0000       0.879802        23.9406 
 160   0.0000       0.880180        23.9509 
 161   0.0000       0.886030        24.1101 
 162   0.0000       0.891839        24.2682 
 163   0.0000       0.893396        24.3105 
 164   0.0000       0.897016        24.4090 
 165   0.0000       0.903797        24.5936 
 166   0.0000       0.905957        24.6523 
 167   0.0000       0.908469        24.7207 
 168   0.0000       0.912911        24.8416 
 169   0.0000       0.917173        24.9575 
 170   0.0000       0.923618        25.1329 
 171   0.0000       0.928290        25.2601 
 172   0.0000       0.929144        25.2833 
 173   0.0000       0.933595        25.4044 
 174   0.0000       0.936751        25.4903 
 175   0.0000       0.947599        25.7855 
 176   0.0000       0.951356        25.8877 
 177   0.0000       0.952522        25.9194 
 178   0.0000       0.959863        26.1192 
 179   0.0000       0.967256        26.3204 
 180   0.0000       0.968392        26.3513 
 181   0.0000       0.975139        26.5349 
 182   0.0000       0.979048        26.6413 
 183   0.0000       0.996013        27.1029 
 184   0.0000       1.005067        27.3493 
 185   0.0000       1.012741        27.5581 
 186   0.0000       1.021847        27.8059 
 187   0.0000       1.028136        27.9770 
 188   0.0000       1.034465        28.1492 
 189   0.0000       1.046905        28.4877 
 190   0.0000       1.068491        29.0751 
 191   0.0000       1.073841        29.2207 
 192   0.0000       1.077530        29.3211 
 193   0.0000       1.106902        30.1203 
 194   0.0000       1.116973        30.3944 
 195   0.0000       1.119372        30.4597 
 196   0.0000       1.138881        30.9905 
 197   0.0000       1.145232        31.1634 
 198   0.0000       1.151767        31.3412 
 199   0.0000       1.181115        32.1398 
 200   0.0000       1.202483        32.7212 
 201   0.0000       1.217905        33.1409 
 202   0.0000       1.230790        33.4915 
 203   0.0000       1.245440        33.8901 
 204   0.0000       1.262999        34.3680 
 205   0.0000       1.264644        34.4127 
 206   0.0000       1.292539        35.1718 
 207   0.0000       1.331218        36.2243 
 208   0.0000       1.340623        36.4802 
 209   0.0000       1.349989        36.7351 
 210   0.0000       1.357511        36.9398 
 211   0.0000       1.362125        37.0653 
 212   0.0000       1.379693        37.5434 
 213   0.0000       1.400679        38.1144 
 214   0.0000       1.414253        38.4838 
 215   0.0000       1.420743        38.6604 
 216   0.0000       1.451921        39.5088 
 217   0.0000       1.461390        39.7665 
 218   0.0000       1.478080        40.2206 
 219   0.0000       1.489761        40.5385 
 220   0.0000       1.507995        41.0346 
 221   0.0000       1.523284        41.4507 
 222   0.0000       1.531533        41.6751 
 223   0.0000       1.533360        41.7248 
 224   0.0000       1.542443        41.9720 
 225   0.0000       1.555426        42.3253 
 226   0.0000       1.567734        42.6602 
 227   0.0000       1.574714        42.8502 
 228   0.0000       1.587980        43.2111 
 229   0.0000       1.597069        43.4584 
 230   0.0000       1.613314        43.9005 
 231   0.0000       1.628822        44.3225 
 232   0.0000       1.637758        44.5657 
 233   0.0000       1.652270        44.9606 
 234   0.0000       1.664350        45.2893 
 235   0.0000       1.669301        45.4240 
 236   0.0000       1.727299        47.0022 
 237   0.0000       1.738828        47.3159 
 238   0.0000       1.758427        47.8492 
 239   0.0000       1.771780        48.2126 
 240   0.0000       1.787225        48.6329 
 241   0.0000       1.804305        49.0976 
 242   0.0000       1.818268        49.4776 
 243   0.0000       1.833570        49.8940 
 244   0.0000       1.844818        50.2000 
 245   0.0000       1.866062        50.7781 
 246   0.0000       1.875090        51.0238 
 247   0.0000       1.921646        52.2907 
 248   0.0000       1.930278        52.5255 
 249   0.0000       1.945785        52.9475 
 250   0.0000       1.957041        53.2538 
 251   0.0000       1.974237        53.7217 
 252   0.0000       1.984348        53.9969 
 253   0.0000       1.991864        54.2014 
 254   0.0000       2.003006        54.5046 
 255   0.0000       2.005465        54.5715 
 256   0.0000       2.006993        54.6131 
 257   0.0000       2.018088        54.9150 
 258   0.0000       2.024799        55.0976 
 259   0.0000       2.034329        55.3569 
 260   0.0000       2.042696        55.5846 
 261   0.0000       2.053135        55.8686 
 262   0.0000       2.060571        56.0710 
 263   0.0000       2.064495        56.1778 
 264   0.0000       2.068236        56.2796 
 265   0.0000       2.078003        56.5453 
 266   0.0000       2.083791        56.7028 
 267   0.0000       2.091016        56.8994 
 268   0.0000       2.096977        57.0616 
 269   0.0000       2.099854        57.1399 
 270   0.0000       2.106232        57.3135 
 271   0.0000       2.110233        57.4224 
 272   0.0000       2.124542        57.8117 
 273   0.0000       2.130612        57.9769 
 274   0.0000       2.139181        58.2101 
 275   0.0000       2.155888        58.6647 
 276   0.0000       2.161282        58.8115 
 277   0.0000       2.165786        58.9340 
 278   0.0000       2.170566        59.0641 
 279   0.0000       2.173518        59.1444 
 280   0.0000       2.185386        59.4674 
 281   0.0000       2.186425        59.4956 
 282   0.0000       2.195787        59.7504 
 283   0.0000       2.230995        60.7085 
 284   0.0000       2.241317        60.9893 
 285   0.0000       2.255361        61.3715 
 286   0.0000       2.263087        61.5817 
 287   0.0000       2.269577        61.7583 
 288   0.0000       2.272302        61.8325 
 289   0.0000       2.290046        62.3153 
 290   0.0000       2.292342        62.3778 
 291   0.0000       2.302842        62.6635 
 292   0.0000       2.310638        62.8756 
 293   0.0000       2.321480        63.1707 
 294   0.0000       2.352439        64.0131 
 295   0.0000       2.361845        64.2691 
 296   0.0000       2.380103        64.7659 
 297   0.0000       2.384001        64.8720 
 298   0.0000       2.409203        65.5578 
 299   0.0000       2.418487        65.8104 
 300   0.0000       2.430512        66.1376 
 301   0.0000       2.448954        66.6394 
 302   0.0000       2.456178        66.8360 
 303   0.0000       2.460849        66.9631 
 304   0.0000       2.473521        67.3079 
 305   0.0000       2.483935        67.5913 
 306   0.0000       2.492473        67.8236 
 307   0.0000       2.512054        68.3565 
 308   0.0000       2.542269        69.1787 
 309   0.0000       2.546134        69.2838 
 310   0.0000       2.561277        69.6959 
 311   0.0000       2.573582        70.0307 
 312   0.0000       2.593898        70.5836 
 313   0.0000       2.606150        70.9170 
 314   0.0000       2.622918        71.3732 
 315   0.0000       2.627834        71.5070 
 316   0.0000       2.653572        72.2074 
 317   0.0000       2.661278        72.4171 
 318   0.0000       2.674436        72.7751 
 319   0.0000       2.689049        73.1727 
 320   0.0000       2.727126        74.2089 
 321   0.0000       2.736369        74.4604 
 322   0.0000       2.742032        74.6145 
 323   0.0000       2.746927        74.7477 
 324   0.0000       2.768618        75.3379 
 325   0.0000       2.777868        75.5896 
 326   0.0000       2.798919        76.1624 
 327   0.0000       2.814449        76.5851 
 328   0.0000       2.837118        77.2019 
 329   0.0000       2.853053        77.6355 
 330   0.0000       2.881908        78.4207 
 331   0.0000       2.891193        78.6734 
 332   0.0000       2.917055        79.3771 
 333   0.0000       2.923822        79.5612 
 334   0.0000       2.932397        79.7946 
 335   0.0000       2.961287        80.5807 
 336   0.0000       2.972488        80.8855 
 337   0.0000       2.987047        81.2817 
 338   0.0000       3.000039        81.6352 
 339   0.0000       3.004340        81.7522 
 340   0.0000       3.017681        82.1153 
 341   0.0000       3.033856        82.5554 
 342   0.0000       3.060590        83.2829 
 343   0.0000       3.080756        83.8316 
 344   0.0000       3.100377        84.3655 
 345   0.0000       3.114689        84.7550 
 346   0.0000       3.125036        85.0366 
 347   0.0000       3.128345        85.1266 
 348   0.0000       3.134859        85.3038 
 349   0.0000       3.175734        86.4161 
 350   0.0000       3.183363        86.6237 
 351   0.0000       3.197589        87.0108 
 352   0.0000       3.211059        87.3774 
 353   0.0000       3.225255        87.7637 
 354   0.0000       3.239270        88.1450 
 355   0.0000       3.249078        88.4119 
 356   0.0000       3.266804        88.8943 
 357   0.0000       3.278013        89.1993 
 358   0.0000       3.281868        89.3042 
 359   0.0000       3.301733        89.8447 
 360   0.0000       3.321243        90.3756 
 361   0.0000       3.322389        90.4068 
 362   0.0000       3.352992        91.2395 
 363   0.0000       3.357630        91.3657 
 364   0.0000       3.367057        91.6223 
 365   0.0000       3.407415        92.7205 
 366   0.0000       3.418758        93.0291 
 367   0.0000       3.441264        93.6416 
 368   0.0000       3.470261        94.4306 
 369   0.0000       3.500461        95.2524 
 370   0.0000       3.511457        95.5516 
 371   0.0000       3.569334        97.1265 
 372   0.0000       3.623877        98.6107 
 373   0.0000       3.634948        98.9120 
 374   0.0000       3.661183        99.6259 
 375   0.0000       3.714279       101.0707 
 376   0.0000       3.975912       108.1901 
 377   0.0000       4.005939       109.0071 
 378   0.0000       4.111013       111.8663 

                    ********************************
                    * MULLIKEN POPULATION ANALYSIS *
                    ********************************

-----------------------
MULLIKEN ATOMIC CHARGES
-----------------------
   0 C :    0.044721
   1 C :   -0.307981
   2 C :    0.004064
   3 C :    0.482422
   4 O :   -0.435501
   5 N :   -0.394222
   6 C :    0.213367
   7 C :   -0.099968
   8 C :   -0.001217
   9 C :   -0.055429
  10 C :   -0.140155
  11 C :    0.132401
  12 C :    0.278962
  13 N :   -0.636044
  14 C :    0.206764
  15 C :   -0.110149
  16 S :   -0.028669
  17 C :    0.330687
  18 N :   -0.469188
  19 C :   -0.057489
  20 H :    0.025342
  21 H :    0.042960
  22 H :    0.045338
  23 H :    0.055229
  24 H :    0.025125
  25 H :    0.045889
  26 H :    0.046432
  27 H :    0.166142
  28 H :    0.076217
  29 H :    0.040173
  30 H :    0.021048
  31 H :    0.058137
  32 H :    0.042491
  33 H :    0.036204
  34 H :    0.054928
  35 H :    0.039469
  36 H :    0.096015
  37 H :    0.087760
  38 H :    0.037725
Sum of atomic charges:   -0.0000000

--------------------------------
MULLIKEN REDUCED ORBITAL CHARGES
--------------------------------
  0 C s       :     3.017481  s :     3.017481
      pz      :     1.016833  p :     2.900569
      px      :     0.884940
      py      :     0.998796
      dz2     :     0.009039  d :     0.037229
      dxz     :     0.005751
      dyz     :     0.005901
      dx2y2   :     0.010053
      dxy     :     0.006486
  1 C s       :     3.210983  s :     3.210983
      pz      :     1.028195  p :     3.044429
      px      :     1.035802
      py      :     0.980431
      dz2     :     0.011833  d :     0.052569
      dxz     :     0.007896
      dyz     :     0.008364
      dx2y2   :     0.012434
      dxy     :     0.012042
  2 C s       :     3.037122  s :     3.037122
      pz      :     1.013945  p :     2.921133
      px      :     0.990732
      py      :     0.916456
      dz2     :     0.011081  d :     0.037681
      dxz     :     0.002870
      dyz     :     0.006707
      dx2y2   :     0.010393
      dxy     :     0.006630
  3 C s       :     3.026952  s :     3.026952
      pz      :     0.774021  p :     2.356751
      px      :     0.762856
      py      :     0.819874
      dz2     :     0.024864  d :     0.133874
      dxz     :     0.028406
      dyz     :     0.018367
      dx2y2   :     0.035659
      dxy     :     0.026578
  4 O s       :     3.800891  s :     3.800891
      pz      :     1.420665  p :     4.614841
      px      :     1.697234
      py      :     1.496942
      dz2     :     0.004721  d :     0.019769
      dxz     :     0.003809
      dyz     :     0.004674
      dx2y2   :     0.002518
      dxy     :     0.004047
  5 N s       :     3.401468  s :     3.401468
      pz      :     1.448232  p :     3.969302
      px      :     1.151031
      py      :     1.370039
      dz2     :     0.002601  d :     0.023453
      dxz     :     0.004919
      dyz     :     0.003327
      dx2y2   :     0.006582
      dxy     :     0.006024
  6 C s       :     2.934289  s :     2.934289
      pz      :     0.975702  p :     2.782117
      px      :     0.881999
      py      :     0.924417
      dz2     :     0.010925  d :     0.070226
      dxz     :     0.015705
      dyz     :     0.009261
      dx2y2   :     0.015218
      dxy     :     0.019118
  7 C s       :     3.202595  s :     3.202595
      pz      :     0.985852  p :     2.855671
      px      :     0.911875
      py      :     0.957944
      dz2     :     0.006599  d :     0.041703
      dxz     :     0.007305
      dyz     :     0.007653
      dx2y2   :     0.010645
      dxy     :     0.009500
  8 C s       :     3.115399  s :     3.115399
      pz      :     0.947557  p :     2.840748
      px      :     0.948382
      py      :     0.944809
      dz2     :     0.005065  d :     0.045071
      dxz     :     0.010526
      dyz     :     0.006111
      dx2y2   :     0.011671
      dxy     :     0.011698
  9 C s       :     3.160248  s :     3.160248
      pz      :     0.991913  p :     2.852722
      px      :     0.906115
      py      :     0.954695
      dz2     :     0.006703  d :     0.042458
      dxz     :     0.008603
      dyz     :     0.006432
      dx2y2   :     0.009776
      dxy     :     0.010944
 10 C s       :     3.059064  s :     3.059064
      pz      :     1.007172  p :     3.029018
      px      :     1.031489
      py      :     0.990357
      dz2     :     0.008147  d :     0.052073
      dxz     :     0.010411
      dyz     :     0.007972
      dx2y2   :     0.013376
      dxy     :     0.012167
 11 C s       :     3.049789  s :     3.049789
      pz      :     0.853687  p :     2.751981
      px      :     0.929125
      py      :     0.969169
      dz2     :     0.009890  d :     0.065829
      dxz     :     0.015358
      dyz     :     0.016682
      dx2y2   :     0.015066
      dxy     :     0.008834
 12 C s       :     2.955494  s :     2.955494
      pz      :     0.938513  p :     2.706553
      px      :     0.845514
      py      :     0.922526
      dz2     :     0.004908  d :     0.058992
      dxz     :     0.017251
      dyz     :     0.015782
      dx2y2   :     0.007736
      dxy     :     0.013316
 13 N s       :     3.558691  s :     3.558691
      pz      :     1.204164  p :     4.042826
      px      :     1.447254
      py      :     1.391408
      dz2     :     0.005693  d :     0.034527
      dxz     :     0.009245
      dyz     :     0.007425
      dx2y2   :     0.004691
      dxy     :     0.007473
 14 C s       :     3.005962  s :     3.005962
      pz      :     0.944161  p :     2.726227
      px      :     0.949704
      py      :     0.832363
      dz2     :     0.005656  d :     0.061047
      dxz     :     0.014905
      dyz     :     0.016351
      dx2y2   :     0.009024
      dxy     :     0.015112
 15 C s       :     3.140365  s :     3.140365
      pz      :     0.899178  p :     2.925545
      px      :     0.981915
      py      :     1.044451
      dz2     :     0.006709  d :     0.044240
      dxz     :     0.013404
      dyz     :     0.007767
      dx2y2   :     0.010030
      dxy     :     0.006330
 16 S s       :     5.899118  s :     5.899118
      pz      :     3.461090  p :    10.029007
      px      :     3.286267
      py      :     3.281649
      dz2     :     0.011696  d :     0.100544
      dxz     :     0.033655
      dyz     :     0.019513
      dx2y2   :     0.021521
      dxy     :     0.014159
 17 C s       :     3.002921  s :     3.002921
      pz      :     0.824015  p :     2.558055
      px      :     0.873423
      py      :     0.860618
      dz2     :     0.022578  d :     0.108337
      dxz     :     0.024777
      dyz     :     0.016207
      dx2y2   :     0.024056
      dxy     :     0.020719
 18 N s       :     3.669970  s :     3.669970
      pz      :     1.381623  p :     3.766343
      px      :     1.231818
      py      :     1.152902
      dz2     :     0.005551  d :     0.032875
      dxz     :     0.005182
      dyz     :     0.008646
      dx2y2   :     0.008096
      dxy     :     0.005400
 19 C s       :     3.209499  s :     3.209499
      pz      :     0.982032  p :     2.807235
      px      :     0.850971
      py      :     0.974232
      dz2     :     0.004878  d :     0.040755
      dxz     :     0.009268
      dyz     :     0.005523
      dx2y2   :     0.011095
      dxy     :     0.009991
 20 H s       :     0.949498  s :     0.949498
      pz      :     0.007833  p :     0.025160
      px      :     0.006685
      py      :     0.010642
 21 H s       :     0.931752  s :     0.931752
      pz      :     0.005414  p :     0.025288
      px      :     0.004375
      py      :     0.015499
 22 H s       :     0.929319  s :     0.929319
      pz      :     0.017183  p :     0.025343
      px      :     0.004070
      py      :     0.004090
 23 H s       :     0.921860  s :     0.921860
      pz      :     0.017209  p :     0.022910
      px      :     0.002880
      py      :     0.002822
 24 H s       :     0.949717  s :     0.949717
      pz      :     0.004379  p :     0.025158
      px      :     0.016998
      py      :     0.003781
 25 H s       :     0.929022  s :     0.929022
      pz      :     0.017726  p :     0.025090
      px      :     0.004227
      py      :     0.003136
 26 H s       :     0.928343  s :     0.928343
      pz      :     0.006773  p :     0.025225
      px      :     0.007360
      py      :     0.011092
 27 H s       :     0.787393  s :     0.787393
      pz      :     0.020073  p :     0.046465
      px      :     0.007211
      py      :     0.019181
 28 H s       :     0.896007  s :     0.896007
      pz      :     0.005584  p :     0.027776
      px      :     0.018808
      py      :     0.003384
 29 H s       :     0.934399  s :     0.934399
      pz      :     0.010137  p :     0.025429
      px      :     0.003163
      py      :     0.012129
 30 H s       :     0.953435  s :     0.953435
      pz      :     0.005156  p :     0.025517
      px      :     0.010652
      py      :     0.009709
 31 H s       :     0.919372  s :     0.919372
      pz      :     0.004949  p :     0.022491
      px      :     0.004223
      py      :     0.013319
 32 H s       :     0.933719  s :     0.933719
      pz      :     0.005684  p :     0.023790
      px      :     0.005787
      py      :     0.012318
 33 H s       :     0.940238  s :     0.940238
      pz      :     0.010182  p :     0.023558
      px      :     0.006492
      py      :     0.006884
 34 H s       :     0.921248  s :     0.921248
      pz      :     0.007856  p :     0.023824
      px      :     0.011714
      py      :     0.004254
 35 H s       :     0.937376  s :     0.937376
      pz      :     0.007338  p :     0.023155
      px      :     0.008246
      py      :     0.007570
 36 H s       :     0.879953  s :     0.879953
      pz      :     0.004750  p :     0.024031
      px      :     0.013265
      py      :     0.006016
 37 H s       :     0.887571  s :     0.887571
      pz      :     0.003928  p :     0.024668
      px      :     0.003283
      py      :     0.017457
 38 H s       :     0.935725  s :     0.935725
      pz      :     0.011072  p :     0.026550
      px      :     0.003726
      py      :     0.011752


                     *******************************
                     * LOEWDIN POPULATION ANALYSIS *
                     *******************************

----------------------
LOEWDIN ATOMIC CHARGES
----------------------
   0 C :   -0.019012
   1 C :   -0.063733
   2 C :   -0.021624
   3 C :    0.199326
   4 O :   -0.291194
   5 N :   -0.055730
   6 C :    0.060289
   7 C :   -0.052843
   8 C :   -0.004019
   9 C :   -0.059469
  10 C :   -0.020222
  11 C :    0.065043
  12 C :    0.079020
  13 N :   -0.160113
  14 C :    0.068475
  15 C :   -0.101797
  16 S :    0.277384
  17 C :   -0.032328
  18 N :   -0.276367
  19 C :   -0.052850
  20 H :    0.014435
  21 H :    0.023113
  22 H :    0.024449
  23 H :    0.022136
  24 H :    0.010831
  25 H :    0.024555
  26 H :    0.022163
  27 H :    0.086592
  28 H :    0.037178
  29 H :    0.028610
  30 H :    0.018482
  31 H :    0.022650
  32 H :    0.016308
  33 H :    0.008404
  34 H :    0.021236
  35 H :    0.006613
  36 H :    0.022621
  37 H :    0.026060
  38 H :    0.025328

-------------------------------
LOEWDIN REDUCED ORBITAL CHARGES
-------------------------------
  0 C s       :     2.830999  s :     2.830999
      pz      :     1.061192  p :     3.104691
      px      :     0.991083
      py      :     1.052417
      dz2     :     0.020035  d :     0.083322
      dxz     :     0.012688
      dyz     :     0.012856
      dx2y2   :     0.022749
      dxy     :     0.014994
  1 C s       :     2.847137  s :     2.847137
      pz      :     1.040074  p :     3.105907
      px      :     1.042764
      py      :     1.023068
      dz2     :     0.026315  d :     0.110690
      dxz     :     0.015525
      dyz     :     0.018005
      dx2y2   :     0.026366
      dxy     :     0.024479
  2 C s       :     2.832009  s :     2.832009
      pz      :     1.056314  p :     3.105143
      px      :     1.043405
      py      :     1.005424
      dz2     :     0.024673  d :     0.084472
      dxz     :     0.006228
      dyz     :     0.014683
      dx2y2   :     0.023435
      dxy     :     0.015453
  3 C s       :     2.840167  s :     2.840167
      pz      :     0.848563  p :     2.686770
      px      :     0.931907
      py      :     0.906300
      dz2     :     0.044710  d :     0.273736
      dxz     :     0.060549
      dyz     :     0.037981
      dx2y2   :     0.075765
      dxy     :     0.054732
  4 O s       :     3.553310  s :     3.553310
      pz      :     1.466185  p :     4.707163
      px      :     1.707553
      py      :     1.533424
      dz2     :     0.005174  d :     0.030722
      dxz     :     0.006499
      dyz     :     0.008906
      dx2y2   :     0.003710
      dxy     :     0.006431
  5 N s       :     3.041904  s :     3.041904
      pz      :     1.421818  p :     3.959466
      px      :     1.185507
      py      :     1.352141
      dz2     :     0.005904  d :     0.054360
      dxz     :     0.010896
      dyz     :     0.007729
      dx2y2   :     0.015665
      dxy     :     0.014166
  6 C s       :     2.822865  s :     2.822865
      pz      :     0.996682  p :     2.965153
      px      :     0.991479
      py      :     0.976992
      dz2     :     0.022114  d :     0.151693
      dxz     :     0.034092
      dyz     :     0.019612
      dx2y2   :     0.033901
      dxy     :     0.041975
  7 C s       :     2.849388  s :     2.849388
      pz      :     1.021402  p :     3.108521
      px      :     1.059685
      py      :     1.027434
      dz2     :     0.013232  d :     0.094934
      dxz     :     0.016785
      dyz     :     0.017621
      dx2y2   :     0.024859
      dxy     :     0.022437
  8 C s       :     2.852357  s :     2.852357
      pz      :     0.983152  p :     3.051216
      px      :     1.062237
      py      :     1.005828
      dz2     :     0.010043  d :     0.100446
      dxz     :     0.023050
      dyz     :     0.013232
      dx2y2   :     0.027521
      dxy     :     0.026601
  9 C s       :     2.848000  s :     2.848000
      pz      :     1.034756  p :     3.113746
      px      :     1.046809
      py      :     1.032181
      dz2     :     0.013970  d :     0.097723
      dxz     :     0.020022
      dyz     :     0.014233
      dx2y2   :     0.022643
      dxy     :     0.026854
 10 C s       :     2.853038  s :     2.853038
      pz      :     0.989288  p :     3.053782
      px      :     1.039940
      py      :     1.024554
      dz2     :     0.016686  d :     0.113403
      dxz     :     0.022291
      dyz     :     0.017175
      dx2y2   :     0.029835
      dxy     :     0.027415
 11 C s       :     2.845242  s :     2.845242
      pz      :     0.951388  p :     2.954687
      px      :     1.011852
      py      :     0.991447
      dz2     :     0.019527  d :     0.135029
      dxz     :     0.032182
      dyz     :     0.034054
      dx2y2   :     0.032165
      dxy     :     0.017101
 12 C s       :     2.836310  s :     2.836310
      pz      :     1.006745  p :     2.955324
      px      :     0.954001
      py      :     0.994579
      dz2     :     0.010221  d :     0.129346
      dxz     :     0.038723
      dyz     :     0.034941
      dx2y2   :     0.016787
      dxy     :     0.028674
 13 N s       :     3.100643  s :     3.100643
      pz      :     1.221918  p :     3.989090
      px      :     1.406544
      py      :     1.360628
      dz2     :     0.012820  d :     0.070379
      dxz     :     0.018923
      dyz     :     0.015833
      dx2y2   :     0.008161
      dxy     :     0.014642
 14 C s       :     2.831146  s :     2.831146
      pz      :     1.016195  p :     2.966423
      px      :     1.009997
      py      :     0.940231
      dz2     :     0.011505  d :     0.133956
      dxz     :     0.033299
      dyz     :     0.037098
      dx2y2   :     0.019402
      dxy     :     0.032652
 15 C s       :     2.896862  s :     2.896862
      pz      :     1.003822  p :     3.112880
      px      :     1.034332
      py      :     1.074727
      dz2     :     0.014698  d :     0.092055
      dxz     :     0.026461
      dyz     :     0.016289
      dx2y2   :     0.021579
      dxy     :     0.013028
 16 S s       :     5.523131  s :     5.523131
      pz      :     3.469041  p :    10.077292
      px      :     3.280723
      py      :     3.327527
      dz2     :     0.013131  d :     0.122193
      dxz     :     0.039576
      dyz     :     0.024418
      dx2y2   :     0.026647
      dxy     :     0.018421
 17 C s       :     2.884476  s :     2.884476
      pz      :     0.948599  p :     2.926044
      px      :     1.001381
      py      :     0.976063
      dz2     :     0.048096  d :     0.221809
      dxz     :     0.051623
      dyz     :     0.031696
      dx2y2   :     0.047158
      dxy     :     0.043236
 18 N s       :     3.292007  s :     3.292007
      pz      :     1.408377  p :     3.927321
      px      :     1.316393
      py      :     1.202551
      dz2     :     0.009136  d :     0.057038
      dxz     :     0.008786
      dyz     :     0.014058
      dx2y2   :     0.013579
      dxy     :     0.011480
 19 C s       :     2.848511  s :     2.848511
      pz      :     1.035415  p :     3.110456
      px      :     1.032460
      py      :     1.042582
      dz2     :     0.009953  d :     0.093883
      dxz     :     0.020673
      dyz     :     0.012413
      dx2y2   :     0.027211
      dxy     :     0.023634
 20 H s       :     0.920431  s :     0.920431
      pz      :     0.020063  p :     0.065134
      px      :     0.018994
      py      :     0.026078
 21 H s       :     0.911320  s :     0.911320
      pz      :     0.014745  p :     0.065566
      px      :     0.014467
      py      :     0.036354
 22 H s       :     0.909582  s :     0.909582
      pz      :     0.040168  p :     0.065969
      px      :     0.013915
      py      :     0.011886
 23 H s       :     0.909279  s :     0.909279
      pz      :     0.040673  p :     0.068586
      px      :     0.014416
      py      :     0.013496
 24 H s       :     0.923362  s :     0.923362
      pz      :     0.012961  p :     0.065807
      px      :     0.039674
      py      :     0.013172
 25 H s       :     0.909616  s :     0.909616
      pz      :     0.041391  p :     0.065828
      px      :     0.012628
      py      :     0.011809
 26 H s       :     0.912245  s :     0.912245
      pz      :     0.017992  p :     0.065592
      px      :     0.019146
      py      :     0.028454
 27 H s       :     0.784712  s :     0.784712
      pz      :     0.055469  p :     0.128696
      px      :     0.022135
      py      :     0.051092
 28 H s       :     0.886281  s :     0.886281
      pz      :     0.017762  p :     0.076541
      px      :     0.045720
      py      :     0.013059
 29 H s       :     0.903867  s :     0.903867
      pz      :     0.025955  p :     0.067523
      px      :     0.011711
      py      :     0.029857
 30 H s       :     0.912663  s :     0.912663
      pz      :     0.016424  p :     0.068855
      px      :     0.027107
      py      :     0.025325
 31 H s       :     0.909993  s :     0.909993
      pz      :     0.015835  p :     0.067357
      px      :     0.015568
      py      :     0.035954
 32 H s       :     0.917772  s :     0.917772
      pz      :     0.017171  p :     0.065919
      px      :     0.017585
      py      :     0.031163
 33 H s       :     0.925287  s :     0.925287
      pz      :     0.028203  p :     0.066308
      px      :     0.018759
      py      :     0.019345
 34 H s       :     0.913549  s :     0.913549
      pz      :     0.021856  p :     0.065215
      px      :     0.029901
      py      :     0.013458
 35 H s       :     0.927401  s :     0.927401
      pz      :     0.022599  p :     0.065986
      px      :     0.021753
      py      :     0.021634
 36 H s       :     0.906414  s :     0.906414
      pz      :     0.016030  p :     0.070966
      px      :     0.037049
      py      :     0.017887
 37 H s       :     0.903925  s :     0.903925
      pz      :     0.014277  p :     0.070015
      px      :     0.013425
      py      :     0.042313
 38 H s       :     0.902163  s :     0.902163
      pz      :     0.028968  p :     0.072509
      px      :     0.013111
      py      :     0.030429


                      *****************************
                      * MAYER POPULATION ANALYSIS *
                      *****************************

  NA   - Mulliken gross atomic population
  ZA   - Total nuclear charge
  QA   - Mulliken gross atomic charge
  VA   - Mayer's total valence
  BVA  - Mayer's bonded valence
  FA   - Mayer's free valence

  ATOM       NA         ZA         QA         VA         BVA        FA
  0 C      5.9553     6.0000     0.0447     3.9279     3.9279    -0.0000
  1 C      6.3080     6.0000    -0.3080     3.8737     3.8737    -0.0000
  2 C      5.9959     6.0000     0.0041     3.8936     3.8936     0.0000
  3 C      5.5176     6.0000     0.4824     3.9210     3.9210     0.0000
  4 O      8.4355     8.0000    -0.4355     2.0415     2.0415    -0.0000
  5 N      7.3942     7.0000    -0.3942     3.0064     3.0064     0.0000
  6 C      5.7866     6.0000     0.2134     3.8090     3.8090     0.0000
  7 C      6.1000     6.0000    -0.1000     3.8962     3.8962     0.0000
  8 C      6.0012     6.0000    -0.0012     3.8790     3.8790    -0.0000
  9 C      6.0554     6.0000    -0.0554     3.8653     3.8653    -0.0000
 10 C      6.1402     6.0000    -0.1402     3.8843     3.8843    -0.0000
 11 C      5.8676     6.0000     0.1324     3.8927     3.8927     0.0000
 12 C      5.7210     6.0000     0.2790     3.7864     3.7864    -0.0000
 13 N      7.6360     7.0000    -0.6360     2.8734     2.8734    -0.0000
 14 C      5.7932     6.0000     0.2068     3.8151     3.8151    -0.0000
 15 C      6.1101     6.0000    -0.1101     3.8865     3.8865    -0.0000
 16 S     16.0287    16.0000    -0.0287     2.0656     2.0656     0.0000
 17 C      5.6693     6.0000     0.3307     3.8155     3.8155     0.0000
 18 N      7.4692     7.0000    -0.4692     2.9217     2.9217    -0.0000
 19 C      6.0575     6.0000    -0.0575     3.8968     3.8968    -0.0000
 20 H      0.9747     1.0000     0.0253     0.9796     0.9796    -0.0000
 21 H      0.9570     1.0000     0.0430     0.9875     0.9875    -0.0000
 22 H      0.9547     1.0000     0.0453     0.9920     0.9920    -0.0000
 23 H      0.9448     1.0000     0.0552     0.9652     0.9652    -0.0000
 24 H      0.9749     1.0000     0.0251     0.9896     0.9896     0.0000
 25 H      0.9541     1.0000     0.0459     0.9852     0.9852     0.0000
 26 H      0.9536     1.0000     0.0464     0.9827     0.9827     0.0000
 27 H      0.8339     1.0000     0.1661     0.9781     0.9781    -0.0000
 28 H      0.9238     1.0000     0.0762     1.0233     1.0233     0.0000
 29 H      0.9598     1.0000     0.0402     0.9862     0.9862    -0.0000
 30 H      0.9790     1.0000     0.0210     0.9929     0.9929    -0.0000
 31 H      0.9419     1.0000     0.0581     0.9729     0.9729    -0.0000
 32 H      0.9575     1.0000     0.0425     0.9855     0.9855    -0.0000
 33 H      0.9638     1.0000     0.0362     0.9956     0.9956    -0.0000
 34 H      0.9451     1.0000     0.0549     0.9777     0.9777    -0.0000
 35 H      0.9605     1.0000     0.0395     0.9788     0.9788    -0.0000
 36 H      0.9040     1.0000     0.0960     0.9589     0.9589    -0.0000
 37 H      0.9122     1.0000     0.0878     0.9728     0.9728    -0.0000
 38 H      0.9623     1.0000     0.0377     1.0271     1.0271     0.0000

  Mayer bond orders larger than 0.100000
B(  0-C ,  1-C ) :   1.0397 B(  0-C , 20-H ) :   0.9858 B(  0-C , 21-H ) :   0.9834 
B(  0-C , 22-H ) :   0.9779 B(  1-C ,  2-C ) :   1.0040 B(  1-C ,  3-C ) :   0.9208 
B(  1-C , 23-H ) :   0.9615 B(  2-C , 24-H ) :   0.9860 B(  2-C , 25-H ) :   0.9801 
B(  2-C , 26-H ) :   0.9875 B(  3-C ,  4-O ) :   1.9439 B(  3-C ,  5-N ) :   1.1023 
B(  5-N ,  6-C ) :   0.9858 B(  5-N , 27-H ) :   0.9300 B(  6-C ,  7-C ) :   1.4135 
B(  6-C , 19-C ) :   1.3498 B(  7-C ,  8-C ) :   1.4049 B(  7-C , 28-H ) :   0.9973 
B(  8-C ,  9-C ) :   1.4302 B(  8-C , 29-H ) :   0.9989 B(  9-C , 10-C ) :   1.3868 
B(  9-C , 30-H ) :   1.0067 B( 10-C , 11-C ) :   0.9808 B( 10-C , 19-C ) :   1.4828 
B( 11-C , 12-C ) :   1.0247 B( 11-C , 18-N ) :   0.9908 B( 11-C , 31-H ) :   0.9414 
B( 12-C , 13-N ) :   0.8932 B( 12-C , 32-H ) :   0.9690 B( 12-C , 33-H ) :   0.9750 
B( 13-N , 14-C ) :   0.8947 B( 13-N , 17-C ) :   1.0391 B( 14-C , 15-C ) :   1.0060 
B( 14-C , 34-H ) :   0.9771 B( 14-C , 35-H ) :   0.9715 B( 15-C , 16-S ) :   0.9691 
B( 15-C , 36-H ) :   0.9601 B( 15-C , 37-H ) :   0.9735 B( 16-S , 17-C ) :   1.0200 
B( 17-C , 18-N ) :   1.8235 B( 19-C , 38-H ) :   0.9947 

-------
TIMINGS
-------

Total SCF time: 0 days 0 hours 0 min 18 sec 

Total time                  ....      18.203 sec
Sum of individual times     ....      17.886 sec  ( 98.3%)

Fock matrix formation       ....      16.940 sec  ( 93.1%)
Diagonalization             ....       0.261 sec  (  1.4%)
Density matrix formation    ....       0.032 sec  (  0.2%)
Population analysis         ....       0.028 sec  (  0.2%)
Initial guess               ....       0.132 sec  (  0.7%)
Orbital Transformation      ....       0.000 sec  (  0.0%)
Orbital Orthonormalization  ....       0.000 sec  (  0.0%)
DIIS solution               ....       0.145 sec  (  0.8%)
SOSCF solution              ....       0.184 sec  (  1.0%)

Maximum memory used throughout the entire SCF-calculation: 238.3 MB

-------------------------   --------------------
FINAL SINGLE POINT ENERGY     -1214.100787919841
-------------------------   --------------------


                            ***************************************
                            *     ORCA property calculations      *
                            ***************************************

                                    ---------------------
                                    Active property flags
                                    ---------------------
   (+) Dipole Moment


------------------------------------------------------------------------------
                       ORCA ELECTRIC PROPERTIES CALCULATION
------------------------------------------------------------------------------

Dipole Moment Calculation                       ... on
Quadrupole Moment Calculation                   ... off
Polarizability Calculation                      ... off
GBWName                                         ... ./ZINC000000000109/ZINC000000000109.gbw
Electron density                                ... ./ZINC000000000109/ZINC000000000109.scfp
The origin for moment calculation is the CENTER OF MASS  = ( 0.922217, -0.205246 -0.215690)

-------------
DIPOLE MOMENT
-------------
                                X             Y             Z
Electronic contribution:     15.93378      -5.73138      -5.34987
Nuclear contribution   :    -14.11802       6.98831       5.83965
                        -----------------------------------------
Total Dipole Moment    :      1.81576       1.25693       0.48978
                        -----------------------------------------
Magnitude (a.u.)       :      2.26202
Magnitude (Debye)      :      5.74959



--------------------
Rotational spectrum 
--------------------
 
Rotational constants in cm-1:     0.019268     0.004318     0.003709 
Rotational constants in MHz :   577.625970   129.442461   111.207230 

 Dipole components along the rotational axes: 
x,y,z [a.u.] :     1.826992    -0.744470     1.106613 
x,y,z [Debye]:     4.643844    -1.892292     2.812788 

 

Timings for individual modules:

Sum of individual times         ...       18.829 sec (=   0.314 min)
GTO integral calculation        ...        0.401 sec (=   0.007 min)   2.1 %
SCF iterations                  ...       18.429 sec (=   0.307 min)  97.9 %
                             ****ORCA TERMINATED NORMALLY****
TOTAL RUN TIME: 0 days 0 hours 0 minutes 19 seconds 188 msec
