
                                 *****************
                                 * O   R   C   A *
                                 *****************

                                            #,                                       
                                            ###                                      
                                            ####                                     
                                            #####                                    
                                            ######                                   
                                           ########,                                 
                                     ,,################,,,,,                         
                               ,,#################################,,                 
                          ,,##########################################,,             
                       ,#########################################, ''#####,          
                    ,#############################################,,   '####,        
                  ,##################################################,,,,####,       
                ,###########''''           ''''###############################       
              ,#####''   ,,,,##########,,,,          '''####'''          '####       
            ,##' ,,,,###########################,,,                        '##       
           ' ,,###''''                  '''############,,,                           
         ,,##''                                '''############,,,,        ,,,,,,###''
      ,#''                                            '''#######################'''  
     '                                                          ''''####''''         
             ,#######,   #######,   ,#######,      ##                                
            ,#'     '#,  ##    ##  ,#'     '#,    #''#        ######   ,####,        
            ##       ##  ##   ,#'  ##            #'  '#       #        #'  '#        
            ##       ##  #######   ##           ,######,      #####,   #    #        
            '#,     ,#'  ##    ##  '#,     ,#' ,#      #,         ##   #,  ,#        
             '#######'   ##     ##  '#######'  #'      '#     #####' # '####'        



                  #######################################################
                  #                        -***-                        #
                  #          Department of theory and spectroscopy      #
                  #    Directorship and core code : Frank Neese         #
                  #        Max Planck Institute fuer Kohlenforschung    #
                  #                Kaiser Wilhelm Platz 1               #
                  #                 D-45470 Muelheim/Ruhr               #
                  #                      Germany                        #
                  #                                                     #
                  #                  All rights reserved                #
                  #                        -***-                        #
                  #######################################################


                         Program Version 5.0.3 -  RELEASE  -


 With contributions from (in alphabetic order):
   Daniel Aravena         : Magnetic Suceptibility
   Michael Atanasov       : Ab Initio Ligand Field Theory (pilot matlab implementation)
   Alexander A. Auer      : GIAO ZORA, VPT2 properties, NMR spectrum
   Ute Becker             : Parallelization
   Giovanni Bistoni       : ED, misc. LED, open-shell LED, HFLD
   Martin Brehm           : Molecular dynamics
   Dmytro Bykov           : SCF Hessian
   Vijay G. Chilkuri      : MRCI spin determinant printing, contributions to CSF-ICE
   Dipayan Datta          : RHF DLPNO-CCSD density
   Achintya Kumar Dutta   : EOM-CC, STEOM-CC
   Dmitry Ganyushin       : Spin-Orbit,Spin-Spin,Magnetic field MRCI
   Miquel Garcia          : C-PCM and meta-GGA Hessian, CC/C-PCM, Gaussian charge scheme
   Yang Guo               : DLPNO-NEVPT2, F12-NEVPT2, CIM, IAO-localization
   Andreas Hansen         : Spin unrestricted coupled pair/coupled cluster methods
   Benjamin Helmich-Paris : MC-RPA, TRAH-SCF, COSX integrals
   Lee Huntington         : MR-EOM, pCC
   Robert Izsak           : Overlap fitted RIJCOSX, COSX-SCS-MP3, EOM
   Marcus Kettner         : VPT2
   Christian Kollmar      : KDIIS, OOCD, Brueckner-CCSD(T), CCSD density, CASPT2, CASPT2-K
   Simone Kossmann        : Meta GGA functionals, TD-DFT gradient, OOMP2, MP2 Hessian
   Martin Krupicka        : Initial AUTO-CI
   Lucas Lang             : DCDCAS
   Marvin Lechner         : AUTO-CI (C++ implementation), FIC-MRCC
   Dagmar Lenk            : GEPOL surface, SMD
   Dimitrios Liakos       : Extrapolation schemes; Compound Job, initial MDCI parallelization
   Dimitrios Manganas     : Further ROCIS development; embedding schemes
   Dimitrios Pantazis     : SARC Basis sets
   Anastasios Papadopoulos: AUTO-CI, single reference methods and gradients
   Taras Petrenko         : DFT Hessian,TD-DFT gradient, ASA, ECA, R-Raman, ABS, FL, XAS/XES, NRVS
   Peter Pinski           : DLPNO-MP2, DLPNO-MP2 Gradient
   Christoph Reimann      : Effective Core Potentials
   Marius Retegan         : Local ZFS, SOC
   Christoph Riplinger    : Optimizer, TS searches, QM/MM, DLPNO-CCSD(T), (RO)-DLPNO pert. Triples
   Tobias Risthaus        : Range-separated hybrids, TD-DFT gradient, RPA, STAB
   Michael Roemelt        : Original ROCIS implementation
   Masaaki Saitow         : Open-shell DLPNO-CCSD energy and density
   Barbara Sandhoefer     : DKH picture change effects
   Avijit Sen             : IP-ROCIS
   Kantharuban Sivalingam : CASSCF convergence, NEVPT2, FIC-MRCI
   Bernardo de Souza      : ESD, SOC TD-DFT
   Georgi Stoychev        : AutoAux, RI-MP2 NMR, DLPNO-MP2 response
   Willem Van den Heuvel  : Paramagnetic NMR
   Boris Wezisla          : Elementary symmetry handling
   Frank Wennmohs         : Technical directorship


 We gratefully acknowledge several colleagues who have allowed us to
 interface, adapt or use parts of their codes:
   Stefan Grimme, W. Hujo, H. Kruse, P. Pracht,  : VdW corrections, initial TS optimization,
                  C. Bannwarth, S. Ehlert          DFT functionals, gCP, sTDA/sTD-DF
   Ed Valeev, F. Pavosevic, A. Kumar             : LibInt (2-el integral package), F12 methods
   Garnet Chan, S. Sharma, J. Yang, R. Olivares  : DMRG
   Ulf Ekstrom                                   : XCFun DFT Library
   Mihaly Kallay                                 : mrcc  (arbitrary order and MRCC methods)
   Jiri Pittner, Ondrej Demel                    : Mk-CCSD
   Frank Weinhold                                : gennbo (NPA and NBO analysis)
   Christopher J. Cramer and Donald G. Truhlar   : smd solvation model
   Lars Goerigk                                  : TD-DFT with DH, B97 family of functionals
   V. Asgeirsson, H. Jonsson                     : NEB implementation
   FAccTs GmbH                                   : IRC, NEB, NEB-TS, DLPNO-Multilevel, CI-OPT
                                                   MM, QMMM, 2- and 3-layer-ONIOM, Crystal-QMMM,
                                                   LR-CPCM, SF, NACMEs, symmetry and pop. for TD-DFT,
                                                   nearIR, NL-DFT gradient (VV10), updates on ESD,
                                                   ML-optimized integration grids
   S Lehtola, MJT Oliveira, MAL Marques          : LibXC Library
   Liviu Ungur et al                             : ANISO software


 Your calculation uses the libint2 library for the computation of 2-el integrals
 For citations please refer to: http://libint.valeyev.net

 Your ORCA version has been built with support for libXC version: 5.1.0
 For citations please refer to: https://tddft.org/programs/libxc/

 This ORCA versions uses:
   CBLAS   interface :  Fast vector & matrix operations
   LAPACKE interface :  Fast linear algebra routines
   SCALAPACK package :  Parallel linear algebra routines
   Shared memory     :  Shared parallel matrices
   BLAS/LAPACK       :  OpenBLAS 0.3.15  USE64BITINT DYNAMIC_ARCH NO_AFFINITY Zen SINGLE_THREADED
        Core in use  :  Zen
   Copyright (c) 2011-2014, The OpenBLAS Project


================================================================================

----- Orbital basis set information -----
Your calculation utilizes the basis: def2-SVP
   F. Weigend and R. Ahlrichs, Phys. Chem. Chem. Phys. 7, 3297 (2005).

================================================================================
                                        WARNINGS
                       Please study these warnings very carefully!
================================================================================


INFO   : the flag for use of the SHARK integral package has been found!

================================================================================
                                       INPUT FILE
================================================================================
NAME = ./ZINC000000000132/ZINC000000000132.inp
|  1> !RHF def2-SVP TightSCF PAL16 
|  2> *xyz 0 1
|  3> O -0.5174302714121991 0.6711377661210319 1.0737978637700223
|  4> C -1.0090423649397668 0.3247531027778426 0.006690049653233458
|  5> O -0.359608639690384 0.34549098001332895 -1.1936201385273972
|  6> C 1.0095740642673847 0.7899848436951741 -1.1489805309602998
|  7> C 1.9323155019504783 -0.3562872721270643 -0.6981231458601516
|  8> N 3.3804041083502403 -0.07543251889234465 -0.8451000349894434
|  9> C 3.797554915636571 0.9801327007157403 0.09224459041573685
| 10> C 5.267907924704376 1.408572696740024 0.015286935367538963
| 11> C 6.225787824590668 0.38458335374227387 0.6087988865842462
| 12> C 6.624068857828556 -0.7330941286452608 -0.344959039300618
| 13> C 5.538931976767184 -1.246743234932686 -1.2837325653846794
| 14> C 4.136366400896878 -1.3302163598966488 -0.6817387486737759
| 15> C -2.4255495021183795 -0.2250562132866965 -0.1719729271167947
| 16> C -2.3841450497630574 -1.7288004316266459 0.03478544474756778
| 17> C -2.0006789320887535 -2.3869081614087118 1.2536582916653956
| 18> C -2.052176435264008 -3.7592387567543737 1.1566850528375228
| 19> S -2.5564462446902008 -4.2728291696056235 -0.39141749950246063
| 20> C -2.7063128071248355 -2.659792158617149 -0.9373498780162205
| 21> C -3.4360342694140282 0.5012840647396414 0.7632055310650722
| 22> C -4.840745029402823 -0.1446791745667514 0.68841419089583
| 23> C -5.936453201405113 0.8178828614933052 1.1289428202599197
| 24> C -6.014350280687002 2.036970105401275 0.21076423530994454
| 25> C -4.672218160941456 2.399192938448178 -0.42456348284075357
| 26> C -3.501143542012409 2.0230893412684936 0.4758460343709872
| 27> H 1.0919850579505521 1.6777184678209889 -0.5126831548437438
| 28> H 1.2697244248843582 1.0976040837721792 -2.167867172303049
| 29> H 1.6970240934735714 -0.6521644300275566 0.332432241945862
| 30> H 1.6637732991373437 -1.2227811794550807 -1.3179545196186422
| 31> H 3.55532983462018 0.6949434835361055 1.1247295945712439
| 32> H 3.220811372802325 1.886657050617652 -0.12306351552393467
| 33> H 5.36644374604512 2.3334520243381918 0.5986684105904214
| 34> H 5.548367528621518 1.6655245795156879 -1.0131754181568429
| 35> H 5.792655758575191 -0.04518759450925097 1.520608459373883
| 36> H 7.1424984094294155 0.8964339807930041 0.9279324961608794
| 37> H 7.005888233878789 -1.570022304685972 0.2536504539999296
| 38> H 7.471206414010998 -0.3981702052511231 -0.9572110190252601
| 39> H 5.8383077105404615 -2.247156842950442 -1.6229234645385626
| 40> H 5.516708968564928 -0.6301757669417315 -2.19219780129793
| 41> H 4.159973597380617 -1.6630377380805688 0.3635063710031856
| 42> H 3.6249530393387737 -2.1225916919436667 -1.2444614685654019
| 43> H -2.7309865282538444 -0.014958328161805829 -1.2071562393147877
| 44> H -1.6990013643629078 -1.8729059488644457 2.1601007486883206
| 45> H -1.8165457224208084 -4.4860661019415335 1.9219498267205228
| 46> H -3.026906571510532 -2.4718451715029435 -1.9534690516781466
| 47> H -3.0793514254655707 0.3961573251719899 1.798038534398875
| 48> H -4.869395194560823 -1.0378692862283085 1.323674898727045
| 49> H -5.056126724228469 -0.4778688701753662 -0.33504612966979924
| 50> H -6.906550588182585 0.30836530246455246 1.1454300182214152
| 51> H -5.738142919272171 1.1450057652292274 2.1573633983044536
| 52> H -6.396410472002759 2.888140007353151 0.787278606696763
| 53> H -6.7441927901021 1.8567018152186254 -0.5877753422553749
| 54> H -4.650902775653428 3.472456587931762 -0.6454406095908948
| 55> H -4.569813592067222 1.881554056124025 -1.386479654355516
| 56> H -2.570070847010052 2.392612380305922 0.03392659917816638
| 57> H -3.611830818199723 2.555477375731273 1.4300519663866236
| 58> *
| 59> 
| 60>                          ****END OF INPUT****
================================================================================

                       ****************************
                       * Single Point Calculation *
                       ****************************

---------------------------------
CARTESIAN COORDINATES (ANGSTROEM)
---------------------------------
  O     -0.517430    0.671138    1.073798
  C     -1.009042    0.324753    0.006690
  O     -0.359609    0.345491   -1.193620
  C      1.009574    0.789985   -1.148981
  C      1.932316   -0.356287   -0.698123
  N      3.380404   -0.075433   -0.845100
  C      3.797555    0.980133    0.092245
  C      5.267908    1.408573    0.015287
  C      6.225788    0.384583    0.608799
  C      6.624069   -0.733094   -0.344959
  C      5.538932   -1.246743   -1.283733
  C      4.136366   -1.330216   -0.681739
  C     -2.425550   -0.225056   -0.171973
  C     -2.384145   -1.728800    0.034785
  C     -2.000679   -2.386908    1.253658
  C     -2.052176   -3.759239    1.156685
  S     -2.556446   -4.272829   -0.391417
  C     -2.706313   -2.659792   -0.937350
  C     -3.436034    0.501284    0.763206
  C     -4.840745   -0.144679    0.688414
  C     -5.936453    0.817883    1.128943
  C     -6.014350    2.036970    0.210764
  C     -4.672218    2.399193   -0.424563
  C     -3.501144    2.023089    0.475846
  H      1.091985    1.677718   -0.512683
  H      1.269724    1.097604   -2.167867
  H      1.697024   -0.652164    0.332432
  H      1.663773   -1.222781   -1.317955
  H      3.555330    0.694943    1.124730
  H      3.220811    1.886657   -0.123064
  H      5.366444    2.333452    0.598668
  H      5.548368    1.665525   -1.013175
  H      5.792656   -0.045188    1.520608
  H      7.142498    0.896434    0.927932
  H      7.005888   -1.570022    0.253650
  H      7.471206   -0.398170   -0.957211
  H      5.838308   -2.247157   -1.622923
  H      5.516709   -0.630176   -2.192198
  H      4.159974   -1.663038    0.363506
  H      3.624953   -2.122592   -1.244461
  H     -2.730987   -0.014958   -1.207156
  H     -1.699001   -1.872906    2.160101
  H     -1.816546   -4.486066    1.921950
  H     -3.026907   -2.471845   -1.953469
  H     -3.079351    0.396157    1.798039
  H     -4.869395   -1.037869    1.323675
  H     -5.056127   -0.477869   -0.335046
  H     -6.906551    0.308365    1.145430
  H     -5.738143    1.145006    2.157363
  H     -6.396410    2.888140    0.787279
  H     -6.744193    1.856702   -0.587775
  H     -4.650903    3.472457   -0.645441
  H     -4.569814    1.881554   -1.386480
  H     -2.570071    2.392612    0.033927
  H     -3.611831    2.555477    1.430052

----------------------------
CARTESIAN COORDINATES (A.U.)
----------------------------
  NO LB      ZA    FRAG     MASS         X           Y           Z
   0 O     8.0000    0    15.999   -0.977802    1.268267    2.029184
   1 C     6.0000    0    12.011   -1.906814    0.613694    0.012642
   2 O     8.0000    0    15.999   -0.679562    0.652883   -2.255615
   3 C     6.0000    0    12.011    1.907818    1.492855   -2.171259
   4 C     6.0000    0    12.011    3.651547   -0.673285   -1.319262
   5 N     7.0000    0    14.007    6.388038   -0.142547   -1.597008
   6 C     6.0000    0    12.011    7.176339    1.852182    0.174317
   7 C     6.0000    0    12.011    9.954903    2.661817    0.028888
   8 C     6.0000    0    12.011   11.765034    0.726757    1.150463
   9 C     6.0000    0    12.011   12.517676   -1.385347   -0.651878
  10 C     6.0000    0    12.011   10.467065   -2.356003   -2.425903
  11 C     6.0000    0    12.011    7.816600   -2.513745   -1.288300
  12 C     6.0000    0    12.011   -4.583624   -0.425295   -0.324982
  13 C     6.0000    0    12.011   -4.505381   -3.266959    0.065735
  14 C     6.0000    0    12.011   -3.780735   -4.510603    2.369071
  15 C     6.0000    0    12.011   -3.878051   -7.103932    2.185818
  16 S    16.0000    0    32.060   -4.830983   -8.074477   -0.739672
  17 C     6.0000    0    12.011   -5.114190   -5.026279   -1.771335
  18 C     6.0000    0    12.011   -6.493164    0.947290    1.442249
  19 C     6.0000    0    12.011   -9.147682   -0.273404    1.300914
  20 C     6.0000    0    12.011  -11.218271    1.545575    2.133393
  21 C     6.0000    0    12.011  -11.365475    3.849316    0.398287
  22 C     6.0000    0    12.011   -8.829213    4.533818   -0.802309
  23 C     6.0000    0    12.011   -6.616202    3.823085    0.899219
  24 H     1.0000    0     1.008    2.063553    3.170428   -0.968831
  25 H     1.0000    0     1.008    2.399431    2.074171   -4.096675
  26 H     1.0000    0     1.008    3.206911   -1.232412    0.628206
  27 H     1.0000    0     1.008    3.144076   -2.310722   -2.490573
  28 H     1.0000    0     1.008    6.718600    1.313253    2.125431
  29 H     1.0000    0     1.008    6.086451    3.565265   -0.232556
  30 H     1.0000    0     1.008   10.141109    4.409585    1.131319
  31 H     1.0000    0     1.008   10.484895    3.147385   -1.914624
  32 H     1.0000    0     1.008   10.946533   -0.085392    2.873534
  33 H     1.0000    0     1.008   13.497366    1.694015    1.753538
  34 H     1.0000    0     1.008   13.239210   -2.966912    0.479330
  35 H     1.0000    0     1.008   14.118534   -0.752433   -1.808867
  36 H     1.0000    0     1.008   11.032803   -4.246511   -3.066881
  37 H     1.0000    0     1.008   10.425069   -1.190860   -4.142653
  38 H     1.0000    0     1.008    7.861211   -3.142686    0.686927
  39 H     1.0000    0     1.008    6.850168   -4.011117   -2.351691
  40 H     1.0000    0     1.008   -5.160817   -0.028267   -2.281195
  41 H     1.0000    0     1.008   -3.210647   -3.539279    4.081999
  42 H     1.0000    0     1.008   -3.432774   -8.477436    3.631959
  43 H     1.0000    0     1.008   -5.720024   -4.671110   -3.691522
  44 H     1.0000    0     1.008   -5.819131    0.748629    3.397800
  45 H     1.0000    0     1.008   -9.201823   -1.961289    2.501383
  46 H     1.0000    0     1.008   -9.554695   -0.903041   -0.633145
  47 H     1.0000    0     1.008  -13.051489    0.582726    2.164549
  48 H     1.0000    0     1.008  -10.843519    2.163747    4.076826
  49 H     1.0000    0     1.008  -12.087464    5.457794    1.487741
  50 H     1.0000    0     1.008  -12.744677    3.508658   -1.110734
  51 H     1.0000    0     1.008   -8.788933    6.561992   -1.219706
  52 H     1.0000    0     1.008   -8.635696    3.555622   -2.620067
  53 H     1.0000    0     1.008   -4.856730    4.521382    0.064112
  54 H     1.0000    0     1.008   -6.825371    4.829152    2.702407

--------------------------------
INTERNAL COORDINATES (ANGSTROEM)
--------------------------------
 O      0   0   0     0.000000000000     0.00000000     0.00000000
 C      1   0   0     1.224901576638     0.00000000     0.00000000
 O      2   1   0     1.364895150147   124.81056681     0.00000000
 C      3   2   1     1.440218305061   115.45331418     1.24607656
 C      4   3   2     1.539046427509   110.43819961    80.90536251
 N      5   4   3     1.482377215940   114.55269626   169.85158560
 C      6   5   4     1.472021628796   110.46018092    67.73531017
 C      7   6   5     1.533434472724   116.11179670   182.06091832
 C      8   7   6     1.522611084097   113.31333472   286.19153869
 C      9   8   7     1.522328780934   114.46482539    84.04494135
 C     10   9   8     1.524025324037   116.55681006   322.56957900
 C      6   5   4     1.473990632692   109.19170042   192.88668755
 C      2   1   3     1.529935689164   125.09620723   178.43906713
 C     13   2   1     1.518456462070   108.34505352   272.24931519
 C     14  13   2     1.437290180985   125.18307422    62.11318086
 C     15  14  13     1.376716043636   112.74984786   180.13769482
 S     16  15  14     1.707244758502   112.01148811     0.09146013
 C     14  13   2     1.384046511275   124.34366250   242.51377441
 C     13   2   1     1.556665800057   111.29509031    37.64796966
 C     19  13   2     1.547925893035   111.42804826   185.63302332
 C     20  19  13     1.523537838305   112.02573502   202.30953809
 C     21  20  19     1.528166737330   111.52698602    62.72161015
 C     22  21  20     1.528451934829   113.20628966   330.83274701
 C     23  22  21     1.524338209715   111.75251322   329.68601730
 H      4   3   2     1.095325024884   109.85677255   315.79050568
 H      4   3   2     1.095644921907   106.47267731   200.09144661
 H      5   4   3     1.097702030064   110.32017996   295.55968562
 H      5   4   3     1.098689008784   105.99657462    49.12361861
 H      7   6   5     1.098194501568   110.48413473    56.82902458
 H      7   6   5     1.095799749794   108.59978347   300.40558459
 H      8   7   6     1.097927604325   107.14258092   167.62753294
 H      8   7   6     1.096547615067   110.96427909    52.17649655
 H      9   8   7     1.097134062730   109.81814321   320.21119354
 H      9   8   7     1.097358474487   108.97835197   204.84850667
 H     10   9   8     1.097528192461   108.00913836   199.44247908
 H     10   9   8     1.097573942946   109.10958137    85.15259974
 H     11  10   9     1.097954317423   107.65255235   200.52289349
 H     11  10   9     1.098161367715   109.55779316    86.67517219
 H     12   6   5     1.097207696706   112.01437409   286.87252695
 H     12   6   5     1.098207244876   108.57792828    43.85469035
 H     13   2   1     1.099562362088   107.36518967   154.70510194
 H     15  14  13     1.084825127504   124.46019061     0.03275291
 H     16  15  14     1.081401866418   127.73267185   180.03228710
 H     18  14  13     1.081943901878   127.71816188   359.85001074
 H     19  13   2     1.099615217850   108.07105374   303.47150709
 H     20  19  13     1.096433114443   109.61339248    80.96472307
 H     20  19  13     1.097668290285   110.47417784   323.62949004
 H     21  20  19     1.095887270885   110.31872634   184.71793931
 H     21  20  19     1.097262615555   109.23126083   301.49213018
 H     22  21  20     1.096735616360   108.72609102   208.38801548
 H     22  21  20     1.096737070557   109.89333311    92.57895427
 H     23  22  21     1.095963462928   109.44663279   207.29937706
 H     23  22  21     1.097141480959   109.54719100    90.91311550
 H     24  23  22     1.094868223559   109.36753888   185.90019133
 H     24  23  22     1.098270300538   108.43177045   300.85676937

---------------------------
INTERNAL COORDINATES (A.U.)
---------------------------
 O      0   0   0     0.000000000000     0.00000000     0.00000000
 C      1   0   0     2.314728520855     0.00000000     0.00000000
 O      2   1   0     2.579278035294   124.81056681     0.00000000
 C      3   2   1     2.721618169625   115.45331418     1.24607656
 C      4   3   2     2.908376255382   110.43819961    80.90536251
 N      5   4   3     2.801286965291   114.55269626   169.85158560
 C      6   5   4     2.781717741632   110.46018092    67.73531017
 C      7   6   5     2.897771197762   116.11179670   182.06091832
 C      8   7   6     2.877317957417   113.31333472   286.19153869
 C      9   8   7     2.876784481752   114.46482539    84.04494135
 C     10   9   8     2.879990483590   116.55681006   322.56957900
 C      6   5   4     2.785438619754   109.19170042   192.88668755
 C      2   1   3     2.891159455032   125.09620723   178.43906713
 C     13   2   1     2.869466859595   108.34505352   272.24931519
 C     14  13   2     2.716084817036   125.18307422    62.11318086
 C     15  14  13     2.601616286647   112.74984786   180.13769482
 S     16  15  14     3.226225037142   112.01148811     0.09146013
 C     14  13   2     2.615468862919   124.34366250   242.51377441
 C     13   2   1     2.941672044149   111.29509031    37.64796966
 C     19  13   2     2.925156013441   111.42804826   185.63302332
 C     20  19  13     2.879069269062   112.02573502   202.30953809
 C     21  20  19     2.887816620521   111.52698602    62.72161015
 C     22  21  20     2.888355565690   113.20628966   330.83274701
 C     23  22  21     2.880581751833   111.75251322   329.68601730
 H      4   3   2     2.069864324660   109.85677255   315.79050568
 H      4   3   2     2.070468842426   106.47267731   200.09144661
 H      5   4   3     2.074356213470   110.32017996   295.55968562
 H      5   4   3     2.076221332952   105.99657462    49.12361861
 H      7   6   5     2.075286849742   110.48413473    56.82902458
 H      7   6   5     2.070761424731   108.59978347   300.40558459
 H      8   7   6     2.074782487047   107.14258092   167.62753294
 H      8   7   6     2.072174685280   110.96427909    52.17649655
 H      9   8   7     2.073282910756   109.81814321   320.21119354
 H      9   8   7     2.073706987519   108.97835197   204.84850667
 H     10   9   8     2.074027708010   108.00913836   199.44247908
 H     10   9   8     2.074114163895   109.10958137    85.15259974
 H     11  10   9     2.074832967486   107.65255235   200.52289349
 H     11  10   9     2.075224235833   109.55779316    86.67517219
 H     12   6   5     2.073422058805   112.01437409   286.87252695
 H     12   6   5     2.075310931105   108.57792828    43.85469035
 H     13   2   1     2.077871731515   107.36518967   154.70510194
 H     15  14  13     2.050022394178   124.46019061     0.03275291
 H     16  15  14     2.043553368242   127.73267185   180.03228710
 H     18  14  13     2.044577666816   127.71816188   359.85001074
 H     19  13   2     2.077971614429   108.07105374   303.47150709
 H     20  19  13     2.071958310460   109.61339248    80.96472307
 H     20  19  13     2.074292454529   110.47417784   323.62949004
 H     21  20  19     2.070926815623   110.31872634   184.71793931
 H     21  20  19     2.073525840388   109.23126083   301.49213018
 H     22  21  20     2.072529956238   108.72609102   208.38801548
 H     22  21  20     2.072532704271   109.89333311    92.57895427
 H     23  22  21     2.071070797719   109.44663279   207.29937706
 H     23  22  21     2.073296929178   109.54719100    90.91311550
 H     24  23  22     2.069001095260   109.36753888   185.90019133
 H     24  23  22     2.075430089035   108.43177045   300.85676937

---------------------
BASIS SET INFORMATION
---------------------
There are 5 groups of distinct atoms

 Group   1 Type O   : 7s4p1d contracted to 3s2p1d pattern {511/31/1}
 Group   2 Type C   : 7s4p1d contracted to 3s2p1d pattern {511/31/1}
 Group   3 Type N   : 7s4p1d contracted to 3s2p1d pattern {511/31/1}
 Group   4 Type S   : 10s7p1d contracted to 4s3p1d pattern {5311/511/1}
 Group   5 Type H   : 4s1p contracted to 2s1p pattern {31/1}

Atom   0O    basis set group =>   1
Atom   1C    basis set group =>   2
Atom   2O    basis set group =>   1
Atom   3C    basis set group =>   2
Atom   4C    basis set group =>   2
Atom   5N    basis set group =>   3
Atom   6C    basis set group =>   2
Atom   7C    basis set group =>   2
Atom   8C    basis set group =>   2
Atom   9C    basis set group =>   2
Atom  10C    basis set group =>   2
Atom  11C    basis set group =>   2
Atom  12C    basis set group =>   2
Atom  13C    basis set group =>   2
Atom  14C    basis set group =>   2
Atom  15C    basis set group =>   2
Atom  16S    basis set group =>   4
Atom  17C    basis set group =>   2
Atom  18C    basis set group =>   2
Atom  19C    basis set group =>   2
Atom  20C    basis set group =>   2
Atom  21C    basis set group =>   2
Atom  22C    basis set group =>   2
Atom  23C    basis set group =>   2
Atom  24H    basis set group =>   5
Atom  25H    basis set group =>   5
Atom  26H    basis set group =>   5
Atom  27H    basis set group =>   5
Atom  28H    basis set group =>   5
Atom  29H    basis set group =>   5
Atom  30H    basis set group =>   5
Atom  31H    basis set group =>   5
Atom  32H    basis set group =>   5
Atom  33H    basis set group =>   5
Atom  34H    basis set group =>   5
Atom  35H    basis set group =>   5
Atom  36H    basis set group =>   5
Atom  37H    basis set group =>   5
Atom  38H    basis set group =>   5
Atom  39H    basis set group =>   5
Atom  40H    basis set group =>   5
Atom  41H    basis set group =>   5
Atom  42H    basis set group =>   5
Atom  43H    basis set group =>   5
Atom  44H    basis set group =>   5
Atom  45H    basis set group =>   5
Atom  46H    basis set group =>   5
Atom  47H    basis set group =>   5
Atom  48H    basis set group =>   5
Atom  49H    basis set group =>   5
Atom  50H    basis set group =>   5
Atom  51H    basis set group =>   5
Atom  52H    basis set group =>   5
Atom  53H    basis set group =>   5
Atom  54H    basis set group =>   5


           ************************************************************
           *        Program running with 16 parallel MPI-processes    *
           *              working on a common directory               *
           ************************************************************
------------------------------------------------------------------------------
                           ORCA GTO INTEGRAL CALCULATION
------------------------------------------------------------------------------
------------------------------------------------------------------------------
                   ___                                                        
                  /   \      - P O W E R E D   B Y -                         
                 /     \                                                     
                 |  |  |   _    _      __       _____    __    __             
                 |  |  |  | |  | |    /  \     |  _  \  |  |  /  |          
                  \  \/   | |  | |   /    \    | | | |  |  | /  /          
                 / \  \   | |__| |  /  /\  \   | |_| |  |  |/  /          
                |  |  |   |  __  | /  /__\  \  |    /   |      \           
                |  |  |   | |  | | |   __   |  |    \   |  |\   \          
                \     /   | |  | | |  |  |  |  | |\  \  |  | \   \       
                 \___/    |_|  |_| |__|  |__|  |_| \__\ |__|  \__/        
                                                                              
                      - O R C A' S   B I G   F R I E N D -                    
                                      &                                       
                       - I N T E G R A L  F E E D E R -                       
                                                                              
 v1 FN, 2020, v2 2021                                                         
------------------------------------------------------------------------------


Reading SHARK input file ./ZINC000000000132/ZINC000000000132.SHARKINP.tmp ... ok
----------------------
SHARK INTEGRAL PACKAGE
----------------------

Number of atoms                             ...     55
Number of basis functions                   ...    495
Number of shells                            ...    239
Maximum angular momentum                    ...      2
Integral batch strategy                     ... SHARK/LIBINT Hybrid
RI-J (if used) integral strategy            ... SPLIT-RIJ (Revised 2003 algorithm where possible)
Printlevel                                  ...      1
Contraction scheme used                     ... SEGMENTED contraction
Coulomb Range Separation                    ... NOT USED
Exchange Range Separation                   ... NOT USED
Finite Nucleus Model                        ... NOT USED
Auxiliary Coulomb fitting basis             ... NOT available
Auxiliary J/K fitting basis                 ... NOT available
Auxiliary Correlation fitting basis         ... NOT available
Auxiliary 'external' fitting basis          ... NOT available
Integral threshold                          ...     2.500000e-11
Primitive cut-off                           ...     2.500000e-12
Primitive pair pre-selection threshold      ...     2.500000e-12

Calculating pre-screening integrals         ... done (  0.0 sec) Dimension = 239
Organizing shell pair data                  ... done (  0.1 sec)
Shell pair information
Total number of shell pairs                 ...     28680
Shell pairs after pre-screening             ...     17832
Total number of primitive shell pairs       ...    101440
Primitive shell pairs kept                  ...     40414
          la=0 lb=0:   6001 shell pairs
          la=1 lb=0:   6790 shell pairs
          la=1 lb=1:   1966 shell pairs
          la=2 lb=0:   1876 shell pairs
          la=2 lb=1:   1054 shell pairs
          la=2 lb=2:    145 shell pairs

Calculating one electron integrals          ... done (  0.0 sec)
Calculating Nuclear repulsion               ... done (  0.0 sec) ENN=   2242.980644224655 Eh

SHARK setup successfully completed in   0.3 seconds

Maximum memory used throughout the entire GTOINT-calculation: 26.6 MB


           ************************************************************
           *        Program running with 16 parallel MPI-processes    *
           *              working on a common directory               *
           ************************************************************
-------------------------------------------------------------------------------
                                 ORCA SCF
-------------------------------------------------------------------------------

------------
SCF SETTINGS
------------
Hamiltonian:
 Ab initio Hamiltonian  Method          .... Hartree-Fock(GTOs)


General Settings:
 Integral files         IntName         .... ./ZINC000000000132/ZINC000000000132
 Hartree-Fock type      HFTyp           .... RHF
 Total Charge           Charge          ....    0
 Multiplicity           Mult            ....    1
 Number of Electrons    NEL             ....  190
 Basis Dimension        Dim             ....  495
 Nuclear Repulsion      ENuc            ....   2242.9806442247 Eh

Convergence Acceleration:
 DIIS                   CNVDIIS         .... on
   Start iteration      DIISMaxIt       ....    12
   Startup error        DIISStart       ....  0.200000
   # of expansion vecs  DIISMaxEq       ....     5
   Bias factor          DIISBfac        ....   1.050
   Max. coefficient     DIISMaxC        ....  10.000
 Trust-Rad. Augm. Hess. CNVTRAH         .... auto
   Auto Start mean grad. ratio tolernc. ....  1.125000
   Auto Start start iteration           ....    20
   Auto Start num. interpolation iter.  ....    10
   Max. Number of Micro iterations      ....    16
   Max. Number of Macro iterations      .... Maxiter - #DIIS iter
   Number of Davidson start vectors     ....     2
   Converg. threshold I  (grad. norm)   ....   1.000e-05
   Converg. threshold II (energy diff.) ....   1.000e-08
   Grad. Scal. Fac. for Micro threshold ....   0.100
   Minimum threshold for Micro iter.    ....   0.010
   NR start threshold (gradient norm)   ....   0.001
   Initial trust radius                 ....   0.400
   Minimum AH scaling param. (alpha)    ....   1.000
   Maximum AH scaling param. (alpha)    .... 1000.000
   Orbital update algorithm             .... Taylor
   White noise on init. David. guess    .... on
   Maximum white noise                  ....   0.010
   Quad. conv. algorithm                .... NR
 SOSCF                  CNVSOSCF        .... on
   Start iteration      SOSCFMaxIt      ....   150
   Startup grad/error   SOSCFStart      ....  0.003300
 Level Shifting         CNVShift        .... on
   Level shift para.    LevelShift      ....    0.2500
   Turn off err/grad.   ShiftErr        ....    0.0010
 Zerner damping         CNVZerner       .... off
 Static damping         CNVDamp         .... on
   Fraction old density DampFac         ....    0.7000
   Max. Damping (<1)    DampMax         ....    0.9800
   Min. Damping (>=0)   DampMin         ....    0.0000
   Turn off err/grad.   DampErr         ....    0.1000
 Fernandez-Rico         CNVRico         .... off

SCF Procedure:
 Maximum # iterations   MaxIter         ....   125
 SCF integral mode      SCFMode         .... Direct
   Integral package                     .... SHARK and LIBINT hybrid scheme
 Reset frequency        DirectResetFreq ....    20
 Integral Threshold     Thresh          ....  2.500e-11 Eh
 Primitive CutOff       TCut            ....  2.500e-12 Eh

Convergence Tolerance:
 Convergence Check Mode ConvCheckMode   .... Total+1el-Energy
 Convergence forced     ConvForced      .... 0
 Energy Change          TolE            ....  1.000e-08 Eh
 1-El. energy change                    ....  1.000e-05 Eh
 Orbital Gradient       TolG            ....  1.000e-05
 Orbital Rotation angle TolX            ....  1.000e-05
 DIIS Error             TolErr          ....  5.000e-07


Diagonalization of the overlap matrix:
Smallest eigenvalue                        ... 6.238e-04
Time for diagonalization                   ...    0.041 sec
Threshold for overlap eigenvalues          ... 1.000e-08
Number of eigenvalues below threshold      ... 0
Time for construction of square roots      ...    0.022 sec
Total time needed                          ...    0.065 sec

Time for model grid setup =    0.246 sec

------------------------------
INITIAL GUESS: MODEL POTENTIAL
------------------------------
Loading Hartree-Fock densities                     ... done
Calculating cut-offs                               ... done
Initializing the effective Hamiltonian             ... done
Setting up the integral package (SHARK)            ... done
Starting the Coulomb interaction                   ... done (   0.1 sec)
Reading the grid                                   ... done
Mapping shells                                     ... done
Starting the XC term evaluation                    ... done (   0.0 sec)
Transforming the Hamiltonian                       ... done (   0.0 sec)
Diagonalizing the Hamiltonian                      ... done (   0.0 sec)
Back transforming the eigenvectors                 ... done (   0.0 sec)
Now organizing SCF variables                       ... done
                      ------------------
                      INITIAL GUESS DONE (   0.5 sec)
                      ------------------
--------------
SCF ITERATIONS
--------------
ITER       Energy         Delta-E        Max-DP      RMS-DP      [F,P]     Damp
               ***  Starting incremental Fock matrix formation  ***
  0  -1375.2783761346   0.000000000000 0.06063342  0.00140942  0.2443278 0.7000
  1  -1375.6212270258  -0.342850891235 0.04847725  0.00107812  0.1480708 0.7000
                               ***Turning on DIIS***
  2  -1375.8247075336  -0.203480507726 0.11968436  0.00241070  0.0834379 0.0000
  3  -1374.1949949139   1.629712619635 0.05126218  0.00070572  0.0477149 0.0000
  4  -1376.2613171651  -2.066322251139 0.00976176  0.00021845  0.0090025 0.0000
  5  -1376.2376728380   0.023644327011 0.00632169  0.00010473  0.0058299 0.0000
                      *** Initiating the SOSCF procedure ***
                           *** Shutting down DIIS ***
                      *** Re-Reading the Fockian *** 
                      *** Removing any level shift *** 
ITER      Energy       Delta-E        Grad      Rot      Max-DP    RMS-DP
  6  -1376.24403590  -0.0063630572  0.003227  0.003227  0.004414  0.000050
               *** Restarting incremental Fock matrix formation ***
  7  -1376.24641398  -0.0023780890  0.001987  0.004337  0.004261  0.000030
  8  -1376.24646880  -0.0000548111  0.000959  0.005676  0.005573  0.000043
  9  -1376.24649333  -0.0000245361  0.000186  0.000260  0.000713  0.000009
 10  -1376.24649598  -0.0000026496  0.000061  0.000197  0.000218  0.000002
 11  -1376.24649621  -0.0000002313  0.000008  0.000028  0.000083  0.000001
 12  -1376.24649623  -0.0000000145  0.000007  0.000027  0.000023  0.000000
                  ***Gradient check signals convergence***
              ***Rediagonalizing the Fockian in SOSCF/NRSCF***

               *****************************************************
               *                     SUCCESS                       *
               *           SCF CONVERGED AFTER  13 CYCLES          *
               *****************************************************


----------------
TOTAL SCF ENERGY
----------------

Total Energy       :        -1376.24649623 Eh          -37449.57106 eV

Components:
Nuclear Repulsion  :         2242.98064422 Eh           61034.60627 eV
Electronic Energy  :        -3619.22714045 Eh          -98484.17733 eV
One Electron Energy:        -6341.60941741 Eh         -172563.96523 eV
Two Electron Energy:         2722.38227696 Eh           74079.78790 eV

Virial components:
Potential Energy   :        -2747.46566223 Eh          -74762.34151 eV
Kinetic Energy     :         1371.21916600 Eh           37312.77045 eV
Virial Ratio       :            2.00366632


---------------
SCF CONVERGENCE
---------------

  Last Energy change         ...    7.3123e-10  Tolerance :   1.0000e-08
  Last MAX-Density change    ...    5.6529e-06  Tolerance :   1.0000e-07
  Last RMS-Density change    ...    5.3300e-08  Tolerance :   5.0000e-09
  Last Orbital Gradient      ...    1.4035e-06  Tolerance :   1.0000e-05
  Last Orbital Rotation      ...    3.5634e-06  Tolerance :   1.0000e-05

             **** THE GBW FILE WAS UPDATED (./ZINC000000000132/ZINC000000000132.gbw) ****
             **** DENSITY ./ZINC000000000132/ZINC000000000132.scfp WAS UPDATED ****
             **** ENERGY FILE WAS UPDATED (./ZINC000000000132/ZINC000000000132.en.tmp) ****
             **** THE GBW FILE WAS UPDATED (./ZINC000000000132/ZINC000000000132.gbw) ****
             **** DENSITY ./ZINC000000000132/ZINC000000000132.scfp WAS UPDATED ****
----------------
ORBITAL ENERGIES
----------------

  NO   OCC          E(Eh)            E(eV) 
   0   2.0000     -91.948967     -2502.0586 
   1   2.0000     -20.599234      -560.5336 
   2   2.0000     -20.544462      -559.0432 
   3   2.0000     -15.544280      -422.9814 
   4   2.0000     -11.389125      -309.9139 
   5   2.0000     -11.288763      -307.1828 
   6   2.0000     -11.265377      -306.5465 
   7   2.0000     -11.265057      -306.5378 
   8   2.0000     -11.258259      -306.3528 
   9   2.0000     -11.254828      -306.2594 
  10   2.0000     -11.251391      -306.1659 
  11   2.0000     -11.247501      -306.0601 
  12   2.0000     -11.247484      -306.0596 
  13   2.0000     -11.243519      -305.9517 
  14   2.0000     -11.235138      -305.7237 
  15   2.0000     -11.222196      -305.3715 
  16   2.0000     -11.220700      -305.3308 
  17   2.0000     -11.220011      -305.3120 
  18   2.0000     -11.219779      -305.3057 
  19   2.0000     -11.218721      -305.2769 
  20   2.0000     -11.217061      -305.2318 
  21   2.0000     -11.216093      -305.2054 
  22   2.0000     -11.214831      -305.1711 
  23   2.0000     -11.214086      -305.1508 
  24   2.0000      -8.986016      -244.5219 
  25   2.0000      -6.673554      -181.5966 
  26   2.0000      -6.672461      -181.5669 
  27   2.0000      -6.670762      -181.5207 
  28   2.0000      -1.436345       -39.0849 
  29   2.0000      -1.337966       -36.4079 
  30   2.0000      -1.210606       -32.9423 
  31   2.0000      -1.174277       -31.9537 
  32   2.0000      -1.120264       -30.4839 
  33   2.0000      -1.074018       -29.2255 
  34   2.0000      -1.063069       -28.9276 
  35   2.0000      -1.024864       -27.8880 
  36   2.0000      -1.002822       -27.2882 
  37   2.0000      -0.995354       -27.0850 
  38   2.0000      -0.984244       -26.7826 
  39   2.0000      -0.976532       -26.5728 
  40   2.0000      -0.934250       -25.4222 
  41   2.0000      -0.903919       -24.5969 
  42   2.0000      -0.887271       -24.1439 
  43   2.0000      -0.847244       -23.0547 
  44   2.0000      -0.837477       -22.7889 
  45   2.0000      -0.809523       -22.0282 
  46   2.0000      -0.772834       -21.0299 
  47   2.0000      -0.769591       -20.9416 
  48   2.0000      -0.761281       -20.7155 
  49   2.0000      -0.743573       -20.2337 
  50   2.0000      -0.737587       -20.0708 
  51   2.0000      -0.712695       -19.3934 
  52   2.0000      -0.698267       -19.0008 
  53   2.0000      -0.695983       -18.9387 
  54   2.0000      -0.677839       -18.4449 
  55   2.0000      -0.663991       -18.0681 
  56   2.0000      -0.655858       -17.8468 
  57   2.0000      -0.642651       -17.4874 
  58   2.0000      -0.640269       -17.4226 
  59   2.0000      -0.628167       -17.0933 
  60   2.0000      -0.624358       -16.9897 
  61   2.0000      -0.614437       -16.7197 
  62   2.0000      -0.599227       -16.3058 
  63   2.0000      -0.582799       -15.8588 
  64   2.0000      -0.580959       -15.8087 
  65   2.0000      -0.565581       -15.3902 
  66   2.0000      -0.563798       -15.3417 
  67   2.0000      -0.562372       -15.3029 
  68   2.0000      -0.556755       -15.1501 
  69   2.0000      -0.543938       -14.8013 
  70   2.0000      -0.540484       -14.7073 
  71   2.0000      -0.537036       -14.6135 
  72   2.0000      -0.530600       -14.4383 
  73   2.0000      -0.527702       -14.3595 
  74   2.0000      -0.522856       -14.2276 
  75   2.0000      -0.511983       -13.9318 
  76   2.0000      -0.507186       -13.8012 
  77   2.0000      -0.506401       -13.7799 
  78   2.0000      -0.503033       -13.6882 
  79   2.0000      -0.498320       -13.5600 
  80   2.0000      -0.489168       -13.3109 
  81   2.0000      -0.478729       -13.0269 
  82   2.0000      -0.474098       -12.9009 
  83   2.0000      -0.472837       -12.8665 
  84   2.0000      -0.457550       -12.4506 
  85   2.0000      -0.448502       -12.2044 
  86   2.0000      -0.445406       -12.1201 
  87   2.0000      -0.442517       -12.0415 
  88   2.0000      -0.440734       -11.9930 
  89   2.0000      -0.436456       -11.8766 
  90   2.0000      -0.431273       -11.7355 
  91   2.0000      -0.428298       -11.6546 
  92   2.0000      -0.355889        -9.6842 
  93   2.0000      -0.343363        -9.3434 
  94   2.0000      -0.327541        -8.9129 
  95   0.0000       0.115471         3.1421 
  96   0.0000       0.163548         4.4504 
  97   0.0000       0.165079         4.4920 
  98   0.0000       0.170944         4.6516 
  99   0.0000       0.180264         4.9052 
 100   0.0000       0.193613         5.2685 
 101   0.0000       0.199025         5.4158 
 102   0.0000       0.202404         5.5077 
 103   0.0000       0.207266         5.6400 
 104   0.0000       0.207706         5.6520 
 105   0.0000       0.212963         5.7950 
 106   0.0000       0.220079         5.9887 
 107   0.0000       0.226717         6.1693 
 108   0.0000       0.230900         6.2831 
 109   0.0000       0.232454         6.3254 
 110   0.0000       0.234854         6.3907 
 111   0.0000       0.238852         6.4995 
 112   0.0000       0.246232         6.7003 
 113   0.0000       0.250042         6.8040 
 114   0.0000       0.251750         6.8505 
 115   0.0000       0.258796         7.0422 
 116   0.0000       0.265670         7.2292 
 117   0.0000       0.268594         7.3088 
 118   0.0000       0.272764         7.4223 
 119   0.0000       0.273033         7.4296 
 120   0.0000       0.282033         7.6745 
 121   0.0000       0.286011         7.7827 
 122   0.0000       0.290470         7.9041 
 123   0.0000       0.294016         8.0006 
 124   0.0000       0.302842         8.2408 
 125   0.0000       0.310429         8.4472 
 126   0.0000       0.313704         8.5363 
 127   0.0000       0.321844         8.7578 
 128   0.0000       0.324971         8.8429 
 129   0.0000       0.331012         9.0073 
 130   0.0000       0.337074         9.1723 
 131   0.0000       0.342541         9.3210 
 132   0.0000       0.351733         9.5711 
 133   0.0000       0.357962         9.7406 
 134   0.0000       0.369749        10.0614 
 135   0.0000       0.386713        10.5230 
 136   0.0000       0.394918        10.7463 
 137   0.0000       0.399028        10.8581 
 138   0.0000       0.416887        11.3441 
 139   0.0000       0.421868        11.4796 
 140   0.0000       0.427959        11.6454 
 141   0.0000       0.432172        11.7600 
 142   0.0000       0.436034        11.8651 
 143   0.0000       0.439893        11.9701 
 144   0.0000       0.441556        12.0153 
 145   0.0000       0.456379        12.4187 
 146   0.0000       0.464194        12.6314 
 147   0.0000       0.464793        12.6477 
 148   0.0000       0.472491        12.8571 
 149   0.0000       0.482388        13.1265 
 150   0.0000       0.504003        13.7146 
 151   0.0000       0.512848        13.9553 
 152   0.0000       0.518348        14.1050 
 153   0.0000       0.534427        14.5425 
 154   0.0000       0.547826        14.9071 
 155   0.0000       0.573822        15.6145 
 156   0.0000       0.592055        16.1106 
 157   0.0000       0.599207        16.3052 
 158   0.0000       0.604350        16.4452 
 159   0.0000       0.611126        16.6296 
 160   0.0000       0.615116        16.7382 
 161   0.0000       0.620329        16.8800 
 162   0.0000       0.623339        16.9619 
 163   0.0000       0.629307        17.1243 
 164   0.0000       0.645917        17.5763 
 165   0.0000       0.647066        17.6076 
 166   0.0000       0.649979        17.6868 
 167   0.0000       0.654541        17.8110 
 168   0.0000       0.672394        18.2968 
 169   0.0000       0.683721        18.6050 
 170   0.0000       0.684462        18.6252 
 171   0.0000       0.690797        18.7976 
 172   0.0000       0.700627        19.0650 
 173   0.0000       0.709717        19.3124 
 174   0.0000       0.718910        19.5625 
 175   0.0000       0.724809        19.7230 
 176   0.0000       0.734845        19.9962 
 177   0.0000       0.740343        20.1458 
 178   0.0000       0.755367        20.5546 
 179   0.0000       0.767670        20.8894 
 180   0.0000       0.780928        21.2501 
 181   0.0000       0.782068        21.2811 
 182   0.0000       0.799609        21.7585 
 183   0.0000       0.812808        22.1176 
 184   0.0000       0.826381        22.4870 
 185   0.0000       0.826698        22.4956 
 186   0.0000       0.837672        22.7942 
 187   0.0000       0.841227        22.8909 
 188   0.0000       0.847613        23.0647 
 189   0.0000       0.848657        23.0931 
 190   0.0000       0.853697        23.2303 
 191   0.0000       0.858773        23.3684 
 192   0.0000       0.862931        23.4815 
 193   0.0000       0.865668        23.5560 
 194   0.0000       0.868184        23.6245 
 195   0.0000       0.870856        23.6972 
 196   0.0000       0.872117        23.7315 
 197   0.0000       0.874398        23.7936 
 198   0.0000       0.878589        23.9076 
 199   0.0000       0.882972        24.0269 
 200   0.0000       0.885055        24.0836 
 201   0.0000       0.888482        24.1768 
 202   0.0000       0.892551        24.2875 
 203   0.0000       0.893860        24.3232 
 204   0.0000       0.898132        24.4394 
 205   0.0000       0.901072        24.5194 
 206   0.0000       0.905039        24.6274 
 207   0.0000       0.908150        24.7120 
 208   0.0000       0.912112        24.8198 
 209   0.0000       0.913332        24.8530 
 210   0.0000       0.916396        24.9364 
 211   0.0000       0.918225        24.9862 
 212   0.0000       0.919182        25.0122 
 213   0.0000       0.923357        25.1258 
 214   0.0000       0.924969        25.1697 
 215   0.0000       0.931450        25.3460 
 216   0.0000       0.932120        25.3643 
 217   0.0000       0.935773        25.4637 
 218   0.0000       0.938431        25.5360 
 219   0.0000       0.941804        25.6278 
 220   0.0000       0.942539        25.6478 
 221   0.0000       0.943293        25.6683 
 222   0.0000       0.947530        25.7836 
 223   0.0000       0.953509        25.9463 
 224   0.0000       0.955329        25.9958 
 225   0.0000       0.958413        26.0797 
 226   0.0000       0.962241        26.1839 
 227   0.0000       0.963089        26.2070 
 228   0.0000       0.963236        26.2110 
 229   0.0000       0.968075        26.3427 
 230   0.0000       0.969907        26.3925 
 231   0.0000       0.971854        26.4455 
 232   0.0000       0.979157        26.6442 
 233   0.0000       0.981151        26.6985 
 234   0.0000       0.987465        26.8703 
 235   0.0000       0.989744        26.9323 
 236   0.0000       0.992216        26.9996 
 237   0.0000       0.998972        27.1834 
 238   0.0000       1.007058        27.4034 
 239   0.0000       1.011623        27.5277 
 240   0.0000       1.014540        27.6070 
 241   0.0000       1.026273        27.9263 
 242   0.0000       1.039958        28.2987 
 243   0.0000       1.047063        28.4920 
 244   0.0000       1.057490        28.7758 
 245   0.0000       1.060767        28.8649 
 246   0.0000       1.079556        29.3762 
 247   0.0000       1.085283        29.5320 
 248   0.0000       1.099979        29.9320 
 249   0.0000       1.116734        30.3879 
 250   0.0000       1.138424        30.9781 
 251   0.0000       1.141750        31.0686 
 252   0.0000       1.153060        31.3764 
 253   0.0000       1.183009        32.1913 
 254   0.0000       1.192686        32.4546 
 255   0.0000       1.213282        33.0151 
 256   0.0000       1.217259        33.1233 
 257   0.0000       1.227102        33.3911 
 258   0.0000       1.239940        33.7405 
 259   0.0000       1.243455        33.8361 
 260   0.0000       1.249995        34.0141 
 261   0.0000       1.270955        34.5844 
 262   0.0000       1.275032        34.6954 
 263   0.0000       1.281025        34.8585 
 264   0.0000       1.289106        35.0784 
 265   0.0000       1.304495        35.4971 
 266   0.0000       1.318652        35.8823 
 267   0.0000       1.343157        36.5492 
 268   0.0000       1.356532        36.9131 
 269   0.0000       1.378797        37.5190 
 270   0.0000       1.395076        37.9620 
 271   0.0000       1.412812        38.4446 
 272   0.0000       1.416794        38.5529 
 273   0.0000       1.421516        38.6814 
 274   0.0000       1.428694        38.8767 
 275   0.0000       1.457982        39.6737 
 276   0.0000       1.464867        39.8610 
 277   0.0000       1.473777        40.1035 
 278   0.0000       1.483679        40.3730 
 279   0.0000       1.494244        40.6604 
 280   0.0000       1.496969        40.7346 
 281   0.0000       1.511801        41.1382 
 282   0.0000       1.519817        41.3563 
 283   0.0000       1.537140        41.8277 
 284   0.0000       1.549124        42.1538 
 285   0.0000       1.550910        42.2024 
 286   0.0000       1.561841        42.4999 
 287   0.0000       1.578841        42.9625 
 288   0.0000       1.582996        43.0755 
 289   0.0000       1.590887        43.2902 
 290   0.0000       1.606021        43.7020 
 291   0.0000       1.612003        43.8648 
 292   0.0000       1.615676        43.9648 
 293   0.0000       1.619446        44.0674 
 294   0.0000       1.637613        44.5617 
 295   0.0000       1.645469        44.7755 
 296   0.0000       1.655821        45.0572 
 297   0.0000       1.674417        45.5632 
 298   0.0000       1.700224        46.2655 
 299   0.0000       1.716618        46.7116 
 300   0.0000       1.731579        47.1186 
 301   0.0000       1.746536        47.5257 
 302   0.0000       1.759886        47.8889 
 303   0.0000       1.770573        48.1798 
 304   0.0000       1.785983        48.5991 
 305   0.0000       1.800003        48.9806 
 306   0.0000       1.806676        49.1622 
 307   0.0000       1.810705        49.2718 
 308   0.0000       1.838958        50.0406 
 309   0.0000       1.845067        50.2068 
 310   0.0000       1.854729        50.4697 
 311   0.0000       1.866307        50.7848 
 312   0.0000       1.885525        51.3078 
 313   0.0000       1.909558        51.9617 
 314   0.0000       1.916301        52.1452 
 315   0.0000       1.949942        53.0606 
 316   0.0000       1.957029        53.2535 
 317   0.0000       1.971598        53.6499 
 318   0.0000       1.978999        53.8513 
 319   0.0000       1.986116        54.0450 
 320   0.0000       1.996750        54.3343 
 321   0.0000       2.003239        54.5109 
 322   0.0000       2.010057        54.6964 
 323   0.0000       2.013505        54.7903 
 324   0.0000       2.018875        54.9364 
 325   0.0000       2.024103        55.0786 
 326   0.0000       2.032662        55.3115 
 327   0.0000       2.039968        55.5103 
 328   0.0000       2.045174        55.6520 
 329   0.0000       2.051083        55.8128 
 330   0.0000       2.056022        55.9472 
 331   0.0000       2.061897        56.1071 
 332   0.0000       2.065813        56.2136 
 333   0.0000       2.082392        56.6648 
 334   0.0000       2.084044        56.7097 
 335   0.0000       2.086367        56.7729 
 336   0.0000       2.088563        56.8327 
 337   0.0000       2.090387        56.8823 
 338   0.0000       2.097298        57.0704 
 339   0.0000       2.104315        57.2613 
 340   0.0000       2.105614        57.2967 
 341   0.0000       2.107602        57.3508 
 342   0.0000       2.116438        57.5912 
 343   0.0000       2.118075        57.6358 
 344   0.0000       2.121599        57.7316 
 345   0.0000       2.126857        57.8747 
 346   0.0000       2.130765        57.9811 
 347   0.0000       2.135375        58.1065 
 348   0.0000       2.136484        58.1367 
 349   0.0000       2.141088        58.2620 
 350   0.0000       2.145493        58.3818 
 351   0.0000       2.154028        58.6141 
 352   0.0000       2.157718        58.7145 
 353   0.0000       2.159976        58.7759 
 354   0.0000       2.171323        59.0847 
 355   0.0000       2.179229        59.2998 
 356   0.0000       2.181630        59.3652 
 357   0.0000       2.184984        59.4564 
 358   0.0000       2.195102        59.7318 
 359   0.0000       2.198949        59.8364 
 360   0.0000       2.204998        60.0011 
 361   0.0000       2.210495        60.1506 
 362   0.0000       2.212363        60.2014 
 363   0.0000       2.225094        60.5479 
 364   0.0000       2.235960        60.8436 
 365   0.0000       2.237609        60.8884 
 366   0.0000       2.242742        61.0281 
 367   0.0000       2.251229        61.2591 
 368   0.0000       2.260784        61.5191 
 369   0.0000       2.266578        61.6767 
 370   0.0000       2.270509        61.7837 
 371   0.0000       2.275589        61.9219 
 372   0.0000       2.279367        62.0247 
 373   0.0000       2.279738        62.0348 
 374   0.0000       2.302325        62.6494 
 375   0.0000       2.304284        62.7027 
 376   0.0000       2.317708        63.0680 
 377   0.0000       2.323963        63.2383 
 378   0.0000       2.327502        63.3345 
 379   0.0000       2.334223        63.5174 
 380   0.0000       2.341523        63.7161 
 381   0.0000       2.347121        63.8684 
 382   0.0000       2.355879        64.1067 
 383   0.0000       2.357723        64.1569 
 384   0.0000       2.360512        64.2328 
 385   0.0000       2.380049        64.7644 
 386   0.0000       2.381633        64.8075 
 387   0.0000       2.392456        65.1020 
 388   0.0000       2.400207        65.3129 
 389   0.0000       2.413459        65.6736 
 390   0.0000       2.422268        65.9132 
 391   0.0000       2.428297        66.0773 
 392   0.0000       2.444084        66.5069 
 393   0.0000       2.448627        66.6305 
 394   0.0000       2.466280        67.1109 
 395   0.0000       2.469026        67.1856 
 396   0.0000       2.475008        67.3484 
 397   0.0000       2.489917        67.7541 
 398   0.0000       2.497047        67.9481 
 399   0.0000       2.508871        68.2698 
 400   0.0000       2.521200        68.6054 
 401   0.0000       2.528167        68.7949 
 402   0.0000       2.554435        69.5097 
 403   0.0000       2.570720        69.9528 
 404   0.0000       2.583990        70.3139 
 405   0.0000       2.589167        70.4548 
 406   0.0000       2.619576        71.2823 
 407   0.0000       2.624233        71.4090 
 408   0.0000       2.655123        72.2496 
 409   0.0000       2.662530        72.4511 
 410   0.0000       2.669521        72.6414 
 411   0.0000       2.673525        72.7503 
 412   0.0000       2.684967        73.0617 
 413   0.0000       2.692350        73.2626 
 414   0.0000       2.697043        73.3903 
 415   0.0000       2.701669        73.5161 
 416   0.0000       2.706030        73.6348 
 417   0.0000       2.721368        74.0522 
 418   0.0000       2.728971        74.2591 
 419   0.0000       2.732509        74.3553 
 420   0.0000       2.755617        74.9841 
 421   0.0000       2.758630        75.0661 
 422   0.0000       2.774777        75.5055 
 423   0.0000       2.784527        75.7708 
 424   0.0000       2.793193        76.0067 
 425   0.0000       2.809792        76.4583 
 426   0.0000       2.823753        76.8382 
 427   0.0000       2.840238        77.2868 
 428   0.0000       2.844150        77.3932 
 429   0.0000       2.846835        77.4663 
 430   0.0000       2.863858        77.9295 
 431   0.0000       2.867782        78.0363 
 432   0.0000       2.885346        78.5143 
 433   0.0000       2.907464        79.1161 
 434   0.0000       2.915445        79.3333 
 435   0.0000       2.926473        79.6334 
 436   0.0000       2.926836        79.6433 
 437   0.0000       2.946030        80.1656 
 438   0.0000       2.949943        80.2720 
 439   0.0000       2.979536        81.0773 
 440   0.0000       2.987052        81.2818 
 441   0.0000       2.996916        81.5502 
 442   0.0000       3.010042        81.9074 
 443   0.0000       3.015555        82.0574 
 444   0.0000       3.028037        82.3971 
 445   0.0000       3.041784        82.7712 
 446   0.0000       3.047526        82.9274 
 447   0.0000       3.060218        83.2728 
 448   0.0000       3.064516        83.3897 
 449   0.0000       3.069550        83.5267 
 450   0.0000       3.092872        84.1613 
 451   0.0000       3.101181        84.3874 
 452   0.0000       3.120518        84.9136 
 453   0.0000       3.125713        85.0550 
 454   0.0000       3.151021        85.7436 
 455   0.0000       3.155595        85.8681 
 456   0.0000       3.199721        87.0688 
 457   0.0000       3.204637        87.2026 
 458   0.0000       3.223621        87.7192 
 459   0.0000       3.235602        88.0452 
 460   0.0000       3.240263        88.1720 
 461   0.0000       3.249656        88.4276 
 462   0.0000       3.274453        89.1024 
 463   0.0000       3.280832        89.2760 
 464   0.0000       3.292105        89.5827 
 465   0.0000       3.300235        89.8040 
 466   0.0000       3.308535        90.0298 
 467   0.0000       3.316498        90.2465 
 468   0.0000       3.341561        90.9285 
 469   0.0000       3.345326        91.0309 
 470   0.0000       3.346833        91.0720 
 471   0.0000       3.357328        91.3575 
 472   0.0000       3.372052        91.7582 
 473   0.0000       3.379002        91.9473 
 474   0.0000       3.383955        92.0821 
 475   0.0000       3.394560        92.3707 
 476   0.0000       3.412600        92.8616 
 477   0.0000       3.418601        93.0249 
 478   0.0000       3.420536        93.0775 
 479   0.0000       3.426456        93.2386 
 480   0.0000       3.434913        93.4687 
 481   0.0000       3.447157        93.8019 
 482   0.0000       3.476003        94.5869 
 483   0.0000       3.482481        94.7631 
 484   0.0000       3.491607        95.0115 
 485   0.0000       3.506049        95.4044 
 486   0.0000       3.519376        95.7671 
 487   0.0000       3.570298        97.1527 
 488   0.0000       3.587526        97.6216 
 489   0.0000       3.593614        97.7872 
 490   0.0000       3.613089        98.3172 
 491   0.0000       3.723557       101.3231 
 492   0.0000       3.821349       103.9842 
 493   0.0000       4.028504       109.6212 
 494   0.0000       4.077405       110.9518 

                    ********************************
                    * MULLIKEN POPULATION ANALYSIS *
                    ********************************

-----------------------
MULLIKEN ATOMIC CHARGES
-----------------------
   0 O :   -0.430340
   1 C :    0.571772
   2 O :   -0.561945
   3 C :    0.301581
   4 C :    0.111314
   5 N :   -0.655957
   6 C :    0.169461
   7 C :   -0.044058
   8 C :   -0.063238
   9 C :   -0.036413
  10 C :   -0.037627
  11 C :    0.163512
  12 C :    0.003180
  13 C :   -0.167781
  14 C :   -0.002180
  15 C :   -0.104394
  16 S :    0.062873
  17 C :   -0.088531
  18 C :   -0.164421
  19 C :    0.010308
  20 C :   -0.034869
  21 C :   -0.033115
  22 C :   -0.045468
  23 C :   -0.013808
  24 H :    0.052181
  25 H :    0.044432
  26 H :    0.032235
  27 H :    0.040030
  28 H :    0.008644
  29 H :    0.027228
  30 H :    0.030525
  31 H :    0.034668
  32 H :    0.022645
  33 H :    0.030289
  34 H :    0.023180
  35 H :    0.025304
  36 H :    0.028158
  37 H :    0.036070
  38 H :    0.006664
  39 H :    0.027262
  40 H :    0.052481
  41 H :    0.063128
  42 H :    0.079685
  43 H :    0.071760
  44 H :    0.051941
  45 H :    0.045543
  46 H :    0.018778
  47 H :    0.033248
  48 H :    0.024448
  49 H :    0.028668
  50 H :    0.027305
  51 H :    0.034231
  52 H :    0.019190
  53 H :    0.036517
  54 H :    0.033704
Sum of atomic charges:   -0.0000000

--------------------------------
MULLIKEN REDUCED ORBITAL CHARGES
--------------------------------
  0 O s       :     3.803947  s :     3.803947
      pz      :     1.427062  p :     4.606176
      px      :     1.711611
      py      :     1.467503
      dz2     :     0.006356  d :     0.020217
      dxz     :     0.005517
      dyz     :     0.005750
      dx2y2   :     0.001328
      dxy     :     0.001266
  1 C s       :     3.005555  s :     3.005555
      pz      :     0.721190  p :     2.275272
      px      :     0.873004
      py      :     0.681078
      dz2     :     0.046235  d :     0.147401
      dxz     :     0.045386
      dyz     :     0.031008
      dx2y2   :     0.012530
      dxy     :     0.012241
  2 O s       :     3.807644  s :     3.807644
      pz      :     1.532646  p :     4.736674
      px      :     1.415373
      py      :     1.788656
      dz2     :     0.006181  d :     0.017627
      dxz     :     0.004384
      dyz     :     0.002226
      dx2y2   :     0.002569
      dxy     :     0.002266
  3 C s       :     2.986853  s :     2.986853
      pz      :     1.041989  p :     2.644039
      px      :     0.629634
      py      :     0.972416
      dz2     :     0.013348  d :     0.067527
      dxz     :     0.007806
      dyz     :     0.010928
      dx2y2   :     0.018229
      dxy     :     0.017216
  4 C s       :     3.033744  s :     3.033744
      pz      :     1.020480  p :     2.796504
      px      :     0.771866
      py      :     1.004158
      dz2     :     0.012047  d :     0.058438
      dxz     :     0.010489
      dyz     :     0.009949
      dx2y2   :     0.012905
      dxy     :     0.013049
  5 N s       :     3.623728  s :     3.623728
      pz      :     1.655240  p :     4.000367
      px      :     1.137988
      py      :     1.207139
      dz2     :     0.004450  d :     0.031862
      dxz     :     0.004313
      dyz     :     0.007036
      dx2y2   :     0.008752
      dxy     :     0.007312
  6 C s       :     3.004910  s :     3.004910
      pz      :     0.891053  p :     2.765099
      px      :     0.985067
      py      :     0.888979
      dz2     :     0.017597  d :     0.060529
      dxz     :     0.006186
      dyz     :     0.012683
      dx2y2   :     0.011095
      dxy     :     0.012968
  7 C s       :     3.071348  s :     3.071348
      pz      :     1.010136  p :     2.926932
      px      :     0.924408
      py      :     0.992388
      dz2     :     0.009680  d :     0.045778
      dxz     :     0.005894
      dyz     :     0.009449
      dx2y2   :     0.010908
      dxy     :     0.009847
  8 C s       :     3.076790  s :     3.076790
      pz      :     1.000377  p :     2.939589
      px      :     0.980665
      py      :     0.958547
      dz2     :     0.007143  d :     0.046859
      dxz     :     0.008694
      dyz     :     0.012614
      dx2y2   :     0.006552
      dxy     :     0.011855
  9 C s       :     3.068135  s :     3.068135
      pz      :     0.971303  p :     2.921322
      px      :     0.979987
      py      :     0.970033
      dz2     :     0.003509  d :     0.046956
      dxz     :     0.013801
      dyz     :     0.013899
      dx2y2   :     0.007731
      dxy     :     0.008016
 10 C s       :     3.064523  s :     3.064523
      pz      :     1.006618  p :     2.927401
      px      :     0.919332
      py      :     1.001451
      dz2     :     0.006750  d :     0.045704
      dxz     :     0.011703
      dyz     :     0.009420
      dx2y2   :     0.011628
      dxy     :     0.006203
 11 C s       :     3.005038  s :     3.005038
      pz      :     0.984778  p :     2.771552
      px      :     0.945165
      py      :     0.841609
      dz2     :     0.012537  d :     0.059897
      dxz     :     0.008179
      dyz     :     0.012051
      dx2y2   :     0.011965
      dxy     :     0.015165
 12 C s       :     3.077264  s :     3.077264
      pz      :     1.046371  p :     2.869603
      px      :     0.893786
      py      :     0.929446
      dz2     :     0.013578  d :     0.049952
      dxz     :     0.006580
      dyz     :     0.005859
      dx2y2   :     0.013567
      dxy     :     0.010369
 13 C s       :     3.072036  s :     3.072036
      pz      :     1.010497  p :     3.042995
      px      :     1.037409
      py      :     0.995088
      dz2     :     0.011464  d :     0.052750
      dxz     :     0.007451
      dyz     :     0.017462
      dx2y2   :     0.008281
      dxy     :     0.008093
 14 C s       :     3.156941  s :     3.156941
      pz      :     0.928120  p :     2.801634
      px      :     0.997878
      py      :     0.875636
      dz2     :     0.010351  d :     0.043605
      dxz     :     0.004864
      dyz     :     0.012862
      dx2y2   :     0.007048
      dxy     :     0.008480
 15 C s       :     3.146895  s :     3.146895
      pz      :     0.894449  p :     2.913108
      px      :     1.064035
      py      :     0.954623
      dz2     :     0.010569  d :     0.044390
      dxz     :     0.005351
      dyz     :     0.013198
      dx2y2   :     0.006691
      dxy     :     0.008582
 16 S s       :     5.824261  s :     5.824261
      pz      :     3.078207  p :     9.982977
      px      :     3.631438
      py      :     3.273331
      dz2     :     0.036656  d :     0.129890
      dxz     :     0.023029
      dyz     :     0.030379
      dx2y2   :     0.024786
      dxy     :     0.015040
 17 C s       :     3.160940  s :     3.160940
      pz      :     0.973518  p :     2.883968
      px      :     1.072960
      py      :     0.837490
      dz2     :     0.010532  d :     0.043623
      dxz     :     0.005038
      dyz     :     0.011895
      dx2y2   :     0.007792
      dxy     :     0.008366
 18 C s       :     3.176543  s :     3.176543
      pz      :     1.036612  p :     2.935613
      px      :     0.931432
      py      :     0.967569
      dz2     :     0.012229  d :     0.052265
      dxz     :     0.009495
      dyz     :     0.006859
      dx2y2   :     0.012847
      dxy     :     0.010836
 19 C s       :     3.046996  s :     3.046996
      pz      :     1.001615  p :     2.897197
      px      :     0.899826
      py      :     0.995756
      dz2     :     0.010176  d :     0.045499
      dxz     :     0.005089
      dyz     :     0.009721
      dx2y2   :     0.009277
      dxy     :     0.011237
 20 C s       :     3.061754  s :     3.061754
      pz      :     0.999860  p :     2.926587
      px      :     0.976420
      py      :     0.950306
      dz2     :     0.011628  d :     0.046529
      dxz     :     0.003960
      dyz     :     0.011194
      dx2y2   :     0.007973
      dxy     :     0.011774
 21 C s       :     3.065472  s :     3.065472
      pz      :     0.982213  p :     2.921554
      px      :     0.965214
      py      :     0.974127
      dz2     :     0.004442  d :     0.046089
      dxz     :     0.012564
      dyz     :     0.012067
      dx2y2   :     0.010400
      dxy     :     0.006617
 22 C s       :     3.065007  s :     3.065007
      pz      :     0.997223  p :     2.933831
      px      :     0.935805
      py      :     1.000803
      dz2     :     0.008582  d :     0.046630
      dxz     :     0.011718
      dyz     :     0.007711
      dx2y2   :     0.013468
      dxy     :     0.005151
 23 C s       :     3.061047  s :     3.061047
      pz      :     1.000714  p :     2.907577
      px      :     0.980937
      py      :     0.925926
      dz2     :     0.007984  d :     0.045185
      dxz     :     0.009457
      dyz     :     0.009333
      dx2y2   :     0.012282
      dxy     :     0.006128
 24 H s       :     0.923015  s :     0.923015
      pz      :     0.009672  p :     0.024804
      px      :     0.002079
      py      :     0.013054
 25 H s       :     0.931918  s :     0.931918
      pz      :     0.016550  p :     0.023650
      px      :     0.002508
      py      :     0.004593
 26 H s       :     0.944251  s :     0.944251
      pz      :     0.016923  p :     0.023514
      px      :     0.002611
      py      :     0.003980
 27 H s       :     0.936418  s :     0.936418
      pz      :     0.008491  p :     0.023552
      px      :     0.002879
      py      :     0.012181
 28 H s       :     0.968712  s :     0.968712
      pz      :     0.015781  p :     0.022644
      px      :     0.003306
      py      :     0.003557
 29 H s       :     0.949314  s :     0.949314
      pz      :     0.003751  p :     0.023458
      px      :     0.006887
      py      :     0.012820
 30 H s       :     0.945205  s :     0.945205
      pz      :     0.007668  p :     0.024270
      px      :     0.003296
      py      :     0.013305
 31 H s       :     0.941516  s :     0.941516
      pz      :     0.016319  p :     0.023816
      px      :     0.003574
      py      :     0.003923
 32 H s       :     0.953437  s :     0.953437
      pz      :     0.013009  p :     0.023918
      px      :     0.005502
      py      :     0.005407
 33 H s       :     0.945671  s :     0.945671
      pz      :     0.004562  p :     0.024040
      px      :     0.013129
      py      :     0.006349
 34 H s       :     0.952847  s :     0.952847
      pz      :     0.007451  p :     0.023972
      px      :     0.005050
      py      :     0.011471
 35 H s       :     0.950688  s :     0.950688
      pz      :     0.007657  p :     0.024009
      px      :     0.011562
      py      :     0.004789
 36 H s       :     0.947554  s :     0.947554
      pz      :     0.004893  p :     0.024288
      px      :     0.004252
      py      :     0.015143
 37 H s       :     0.940069  s :     0.940069
      pz      :     0.012835  p :     0.023861
      px      :     0.002685
      py      :     0.008341
 38 H s       :     0.970451  s :     0.970451
      pz      :     0.016569  p :     0.022885
      px      :     0.002464
      py      :     0.003852
 39 H s       :     0.948961  s :     0.948961
      pz      :     0.007741  p :     0.023777
      px      :     0.005851
      py      :     0.010186
 40 H s       :     0.924675  s :     0.924675
      pz      :     0.016609  p :     0.022844
      px      :     0.003364
      py      :     0.002871
 41 H s       :     0.910495  s :     0.910495
      pz      :     0.014520  p :     0.026377
      px      :     0.005572
      py      :     0.006285
 42 H s       :     0.893846  s :     0.893846
      pz      :     0.011258  p :     0.026469
      px      :     0.005171
      py      :     0.010040
 43 H s       :     0.901731  s :     0.901731
      pz      :     0.017797  p :     0.026509
      px      :     0.006023
      py      :     0.002689
 44 H s       :     0.925834  s :     0.925834
      pz      :     0.015853  p :     0.022225
      px      :     0.003954
      py      :     0.002419
 45 H s       :     0.930427  s :     0.930427
      pz      :     0.008400  p :     0.024030
      px      :     0.002860
      py      :     0.012770
 46 H s       :     0.957556  s :     0.957556
      pz      :     0.015638  p :     0.023666
      px      :     0.003357
      py      :     0.004671
 47 H s       :     0.942656  s :     0.942656
      pz      :     0.003418  p :     0.024096
      px      :     0.014387
      py      :     0.006290
 48 H s       :     0.951670  s :     0.951670
      pz      :     0.015639  p :     0.023882
      px      :     0.003803
      py      :     0.004440
 49 H s       :     0.947326  s :     0.947326
      pz      :     0.007377  p :     0.024006
      px      :     0.004887
      py      :     0.011742
 50 H s       :     0.948687  s :     0.948687
      pz      :     0.010815  p :     0.024008
      px      :     0.009410
      py      :     0.003783
 51 H s       :     0.941769  s :     0.941769
      pz      :     0.003892  p :     0.023999
      px      :     0.003041
      py      :     0.017066
 52 H s       :     0.957050  s :     0.957050
      pz      :     0.014041  p :     0.023760
      px      :     0.003087
      py      :     0.006633
 53 H s       :     0.939318  s :     0.939318
      pz      :     0.005935  p :     0.024165
      px      :     0.013279
      py      :     0.004951
 54 H s       :     0.942373  s :     0.942373
      pz      :     0.014160  p :     0.023923
      px      :     0.003411
      py      :     0.006352


                     *******************************
                     * LOEWDIN POPULATION ANALYSIS *
                     *******************************

----------------------
LOEWDIN ATOMIC CHARGES
----------------------
   0 O :   -0.281305
   1 C :    0.238056
   2 O :   -0.188903
   3 C :    0.135887
   4 C :    0.052459
   5 N :   -0.204869
   6 C :    0.062408
   7 C :   -0.024430
   8 C :   -0.028713
   9 C :   -0.025172
  10 C :   -0.030191
  11 C :    0.063995
  12 C :   -0.026306
  13 C :   -0.064242
  14 C :   -0.058251
  15 C :   -0.184231
  16 S :    0.410100
  17 C :   -0.186441
  18 C :   -0.013751
  19 C :   -0.014898
  20 C :   -0.021653
  21 C :   -0.023150
  22 C :   -0.024218
  23 C :   -0.014714
  24 H :    0.012223
  25 H :    0.019624
  26 H :    0.001485
  27 H :    0.015959
  28 H :   -0.005267
  29 H :    0.009099
  30 H :    0.019620
  31 H :    0.017014
  32 H :    0.009749
  33 H :    0.015631
  34 H :    0.011333
  35 H :    0.012593
  36 H :    0.016799
  37 H :    0.017382
  38 H :   -0.005758
  39 H :    0.014482
  40 H :    0.031892
  41 H :    0.033250
  42 H :    0.025197
  43 H :    0.022959
  44 H :    0.019299
  45 H :    0.019646
  46 H :    0.008978
  47 H :    0.016607
  48 H :    0.011270
  49 H :    0.013067
  50 H :    0.012753
  51 H :    0.016563
  52 H :    0.007487
  53 H :    0.014094
[...]
      px      :     1.147322
      py      :     1.205858
      dz2     :     0.007733  d :     0.059347
      dxz     :     0.006999
      dyz     :     0.011908
      dx2y2   :     0.017536
      dxy     :     0.015171
  6 C s       :     2.830801  s :     2.830801
      pz      :     0.984182  p :     2.975687
      px      :     1.025601
      py      :     0.965903
      dz2     :     0.040215  d :     0.131104
      dxz     :     0.012772
      dyz     :     0.026774
      dx2y2   :     0.023442
      dxy     :     0.027900
  7 C s       :     2.833922  s :     2.833922
      pz      :     1.048548  p :     3.091266
      px      :     1.010732
      py      :     1.031987
      dz2     :     0.021669  d :     0.099242
      dxz     :     0.012338
      dyz     :     0.020282
      dx2y2   :     0.023935
      dxy     :     0.021017
  8 C s       :     2.832085  s :     2.832085
      pz      :     1.034249  p :     3.095029
      px      :     1.035495
      py      :     1.025286
      dz2     :     0.015399  d :     0.101599
      dxz     :     0.018990
      dyz     :     0.027260
      dx2y2   :     0.013636
      dxy     :     0.026314
  9 C s       :     2.831971  s :     2.831971
      pz      :     1.033599  p :     3.091015
      px      :     1.028110
      py      :     1.029306
      dz2     :     0.007076  d :     0.102185
      dxz     :     0.030418
      dyz     :     0.030641
      dx2y2   :     0.016675
      dxy     :     0.017375
 10 C s       :     2.835770  s :     2.835770
      pz      :     1.036600  p :     3.095147
      px      :     1.011636
      py      :     1.046912
      dz2     :     0.014385  d :     0.099274
      dxz     :     0.024904
      dyz     :     0.021049
      dx2y2   :     0.025990
      dxy     :     0.012946
 11 C s       :     2.831090  s :     2.831090
      pz      :     1.045186  p :     2.975510
      px      :     1.001628
      py      :     0.928696
      dz2     :     0.027733  d :     0.129405
      dxz     :     0.017370
      dyz     :     0.026703
      dx2y2   :     0.025593
      dxy     :     0.032006
 12 C s       :     2.840446  s :     2.840446
      pz      :     1.058404  p :     3.075135
      px      :     1.001947
      py      :     1.014784
      dz2     :     0.029433  d :     0.110725
      dxz     :     0.014989
      dyz     :     0.013007
      dx2y2   :     0.030268
      dxy     :     0.023029
 13 C s       :     2.855516  s :     2.855516
      pz      :     1.060260  p :     3.093091
      px      :     0.998166
      py      :     1.034665
      dz2     :     0.025727  d :     0.115635
      dxz     :     0.014869
      dyz     :     0.041142
      dx2y2   :     0.018105
      dxy     :     0.015791
 14 C s       :     2.862343  s :     2.862343
      pz      :     1.036780  p :     3.096818
      px      :     1.006786
      py      :     1.053252
      dz2     :     0.024224  d :     0.099090
      dxz     :     0.009427
      dyz     :     0.032159
      dx2y2   :     0.016780
      dxy     :     0.016500
 15 C s       :     2.919658  s :     2.919658
      pz      :     1.017433  p :     3.171140
      px      :     1.069172
      py      :     1.084536
      dz2     :     0.022267  d :     0.093433
      dxz     :     0.009970
      dyz     :     0.030711
      dx2y2   :     0.014895
      dxy     :     0.015591
 16 S s       :     5.462896  s :     5.462896
      pz      :     3.090690  p :     9.969498
      px      :     3.583046
      py      :     3.295762
      dz2     :     0.046151  d :     0.157507
      dxz     :     0.028428
      dyz     :     0.037613
      dx2y2   :     0.028684
      dxy     :     0.016632
 17 C s       :     2.918986  s :     2.918986
      pz      :     1.069485  p :     3.174224
      px      :     1.087762
      py      :     1.016978
      dz2     :     0.023991  d :     0.093231
      dxz     :     0.008926
      dyz     :     0.027033
      dx2y2   :     0.016195
      dxy     :     0.017086
 18 C s       :     2.843038  s :     2.843038
      pz      :     1.040819  p :     3.061790
      px      :     1.004713
      py      :     1.016258
      dz2     :     0.025515  d :     0.108923
      dxz     :     0.020062
      dyz     :     0.013690
      dx2y2   :     0.026945
      dxy     :     0.022710
 19 C s       :     2.831917  s :     2.831917
      pz      :     1.046821  p :     3.083590
      px      :     1.003614
      py      :     1.033155
      dz2     :     0.022391  d :     0.099392
      dxz     :     0.010508
      dyz     :     0.021589
      dx2y2   :     0.020439
      dxy     :     0.024466
 20 C s       :     2.830087  s :     2.830087
      pz      :     1.035903  p :     3.090661
      px      :     1.030444
      py      :     1.024314
      dz2     :     0.025944  d :     0.100905
      dxz     :     0.007908
      dyz     :     0.023756
      dx2y2   :     0.017093
      dxy     :     0.026204
 21 C s       :     2.832409  s :     2.832409
      pz      :     1.039142  p :     3.090717
      px      :     1.022298
      py      :     1.029278
      dz2     :     0.008747  d :     0.100024
      dxz     :     0.028093
      dyz     :     0.026575
      dx2y2   :     0.022641
      dxy     :     0.013968
 22 C s       :     2.830916  s :     2.830916
      pz      :     1.032944  p :     3.092343
      px      :     1.016561
      py      :     1.042838
      dz2     :     0.018777  d :     0.100959
      dxz     :     0.025003
      dyz     :     0.016838
      dx2y2   :     0.029617
      dxy     :     0.010725
 23 C s       :     2.832734  s :     2.832734
      pz      :     1.044962  p :     3.083088
      px      :     1.029091
      py      :     1.009035
      dz2     :     0.017104  d :     0.098893
      dxz     :     0.020484
      dyz     :     0.020265
      dx2y2   :     0.027481
      dxy     :     0.013558
 24 H s       :     0.919376  s :     0.919376
      pz      :     0.025064  p :     0.068402
      px      :     0.008387
      py      :     0.034951
 25 H s       :     0.915532  s :     0.915532
      pz      :     0.040699  p :     0.064844
      px      :     0.009050
      py      :     0.015096
 26 H s       :     0.930879  s :     0.930879
      pz      :     0.040751  p :     0.067637
      px      :     0.011965
      py      :     0.014920
 27 H s       :     0.919175  s :     0.919175
      pz      :     0.021984  p :     0.064867
      px      :     0.010740
      py      :     0.032142
 28 H s       :     0.939777  s :     0.939777
      pz      :     0.039866  p :     0.065490
      px      :     0.013697
      py      :     0.011927
 29 H s       :     0.926224  s :     0.926224
      pz      :     0.011428  p :     0.064677
      px      :     0.021273
      py      :     0.031976
 30 H s       :     0.914862  s :     0.914862
      pz      :     0.020169  p :     0.065517
      px      :     0.012718
      py      :     0.032630
 31 H s       :     0.916733  s :     0.916733
      pz      :     0.038079  p :     0.066253
      px      :     0.014187
      py      :     0.013987
 32 H s       :     0.924402  s :     0.924402
      pz      :     0.032463  p :     0.065849
      px      :     0.016378
      py      :     0.017008
 33 H s       :     0.918751  s :     0.918751
      pz      :     0.015053  p :     0.065618
      px      :     0.031971
      py      :     0.018594
 34 H s       :     0.923024  s :     0.923024
      pz      :     0.020613  p :     0.065643
      px      :     0.016363
      py      :     0.028667
 35 H s       :     0.921826  s :     0.921826
      pz      :     0.020975  p :     0.065581
      px      :     0.029568
      py      :     0.015038
 36 H s       :     0.917646  s :     0.917646
      pz      :     0.015748  p :     0.065555
      px      :     0.014554
      py      :     0.035253
 37 H s       :     0.916134  s :     0.916134
      pz      :     0.032807  p :     0.066484
      px      :     0.011686
      py      :     0.021991
 38 H s       :     0.939793  s :     0.939793
      pz      :     0.039638  p :     0.065965
      px      :     0.012281
      py      :     0.014046
 39 H s       :     0.921360  s :     0.921360
      pz      :     0.020063  p :     0.064158
      px      :     0.018266
      py      :     0.025829
 40 H s       :     0.900232  s :     0.900232
      pz      :     0.041116  p :     0.067877
      px      :     0.014038
      py      :     0.012723
 41 H s       :     0.895626  s :     0.895626
      pz      :     0.035968  p :     0.071123
      px      :     0.017131
      py      :     0.018024
 42 H s       :     0.899681  s :     0.899681
      pz      :     0.031460  p :     0.075122
      px      :     0.018013
      py      :     0.025650
 43 H s       :     0.901867  s :     0.901867
      pz      :     0.043838  p :     0.075174
      px      :     0.019572
      py      :     0.011764
 44 H s       :     0.911700  s :     0.911700
      pz      :     0.039447  p :     0.069002
      px      :     0.016294
      py      :     0.013261
 45 H s       :     0.913447  s :     0.913447
      pz      :     0.021766  p :     0.066908
      px      :     0.012827
      py      :     0.032315
 46 H s       :     0.924823  s :     0.924823
      pz      :     0.036863  p :     0.066199
      px      :     0.013564
      py      :     0.015772
 47 H s       :     0.917622  s :     0.917622
      pz      :     0.012386  p :     0.065772
      px      :     0.034636
      py      :     0.018750
 48 H s       :     0.922850  s :     0.922850
      pz      :     0.037405  p :     0.065880
      px      :     0.013393
      py      :     0.015081
 49 H s       :     0.920980  s :     0.920980
      pz      :     0.020174  p :     0.065953
      px      :     0.016243
      py      :     0.029537
 50 H s       :     0.921329  s :     0.921329
      pz      :     0.027225  p :     0.065919
      px      :     0.025295
      py      :     0.013398
 51 H s       :     0.917519  s :     0.917519
      pz      :     0.013650  p :     0.065918
      px      :     0.012832
      py      :     0.039436
 52 H s       :     0.926621  s :     0.926621
      pz      :     0.034303  p :     0.065892
      px      :     0.013058
      py      :     0.018532
 53 H s       :     0.919109  s :     0.919109
      pz      :     0.017305  p :     0.066797
      px      :     0.033488
      py      :     0.016003
 54 H s       :     0.916395  s :     0.916395
      pz      :     0.034013  p :     0.066097
      px      :     0.012829
      py      :     0.019255


                      *****************************
                      * MAYER POPULATION ANALYSIS *
                      *****************************

  NA   - Mulliken gross atomic population
  ZA   - Total nuclear charge
  QA   - Mulliken gross atomic charge
  VA   - Mayer's total valence
  BVA  - Mayer's bonded valence
  FA   - Mayer's free valence

  ATOM       NA         ZA         QA         VA         BVA        FA
  0 O      8.4303     8.0000    -0.4303     2.0190     2.0190     0.0000
  1 C      5.4282     6.0000     0.5718     3.8934     3.8934     0.0000
  2 O      8.5619     8.0000    -0.5619     1.9052     1.9052    -0.0000
  3 C      5.6984     6.0000     0.3016     3.7970     3.7970     0.0000
  4 C      5.8887     6.0000     0.1113     3.8943     3.8943    -0.0000
  5 N      7.6560     7.0000    -0.6560     2.7771     2.7771    -0.0000
  6 C      5.8305     6.0000     0.1695     3.8544     3.8544    -0.0000
  7 C      6.0441     6.0000    -0.0441     3.9541     3.9541    -0.0000
  8 C      6.0632     6.0000    -0.0632     3.9302     3.9302     0.0000
  9 C      6.0364     6.0000    -0.0364     3.9497     3.9497    -0.0000
 10 C      6.0376     6.0000    -0.0376     3.9378     3.9378    -0.0000
 11 C      5.8365     6.0000     0.1635     3.8493     3.8493     0.0000
 12 C      5.9968     6.0000     0.0032     3.7364     3.7364    -0.0000
 13 C      6.1678     6.0000    -0.1678     3.8857     3.8857    -0.0000
 14 C      6.0022     6.0000    -0.0022     3.9014     3.9014     0.0000
 15 C      6.1044     6.0000    -0.1044     3.8058     3.8058    -0.0000
 16 S     15.9371    16.0000     0.0629     2.4307     2.4307     0.0000
 17 C      6.0885     6.0000    -0.0885     3.8419     3.8419    -0.0000
 18 C      6.1644     6.0000    -0.1644     3.8371     3.8371     0.0000
 19 C      5.9897     6.0000     0.0103     3.9150     3.9150    -0.0000
 20 C      6.0349     6.0000    -0.0349     3.9689     3.9689     0.0000
 21 C      6.0331     6.0000    -0.0331     3.9246     3.9246    -0.0000
 22 C      6.0455     6.0000    -0.0455     3.9514     3.9514    -0.0000
 23 C      6.0138     6.0000    -0.0138     3.9170     3.9170     0.0000
 24 H      0.9478     1.0000     0.0522     1.0005     1.0005     0.0000
 25 H      0.9556     1.0000     0.0444     0.9893     0.9893    -0.0000
 26 H      0.9678     1.0000     0.0322     0.9957     0.9957    -0.0000
 27 H      0.9600     1.0000     0.0400     0.9836     0.9836    -0.0000
 28 H      0.9914     1.0000     0.0086     0.9797     0.9797     0.0000
 29 H      0.9728     1.0000     0.0272     0.9787     0.9787    -0.0000
 30 H      0.9695     1.0000     0.0305     0.9716     0.9716     0.0000
 31 H      0.9653     1.0000     0.0347     0.9788     0.9788    -0.0000
 32 H      0.9774     1.0000     0.0226     0.9753     0.9753     0.0000
 33 H      0.9697     1.0000     0.0303     0.9698     0.9698    -0.0000
 34 H      0.9768     1.0000     0.0232     0.9682     0.9682    -0.0000
 35 H      0.9747     1.0000     0.0253     0.9687     0.9687     0.0000
 36 H      0.9718     1.0000     0.0282     0.9711     0.9711    -0.0000
 37 H      0.9639     1.0000     0.0361     0.9857     0.9857    -0.0000
 38 H      0.9933     1.0000     0.0067     0.9795     0.9795     0.0000
 39 H      0.9727     1.0000     0.0273     0.9808     0.9808    -0.0000
 40 H      0.9475     1.0000     0.0525     0.9994     0.9994    -0.0000
 41 H      0.9369     1.0000     0.0631     1.0023     1.0023     0.0000
 42 H      0.9203     1.0000     0.0797     0.9935     0.9935    -0.0000
 43 H      0.9282     1.0000     0.0718     1.0008     1.0008     0.0000
 44 H      0.9481     1.0000     0.0519     0.9751     0.9751     0.0000
 45 H      0.9545     1.0000     0.0455     0.9743     0.9743    -0.0000
 46 H      0.9812     1.0000     0.0188     0.9771     0.9771    -0.0000
 47 H      0.9668     1.0000     0.0332     0.9720     0.9720     0.0000
 48 H      0.9756     1.0000     0.0244     0.9679     0.9679     0.0000
 49 H      0.9713     1.0000     0.0287     0.9691     0.9691     0.0000
 50 H      0.9727     1.0000     0.0273     0.9692     0.9692     0.0000
 51 H      0.9658     1.0000     0.0342     0.9716     0.9716     0.0000
 52 H      0.9808     1.0000     0.0192     0.9699     0.9699    -0.0000
 53 H      0.9635     1.0000     0.0365     0.9828     0.9828     0.0000
 54 H      0.9663     1.0000     0.0337     0.9701     0.9701     0.0000

  Mayer bond orders larger than 0.100000
B(  0-O ,  1-C ) :   1.9320 B(  1-C ,  2-O ) :   1.0819 B(  1-C , 12-C ) :   0.9271 
B(  2-O ,  3-C ) :   0.8002 B(  3-C ,  4-C ) :   1.0457 B(  3-C , 24-H ) :   0.9768 
B(  3-C , 25-H ) :   0.9736 B(  4-C ,  5-N ) :   0.9458 B(  4-C , 26-H ) :   0.9708 
B(  4-C , 27-H ) :   0.9717 B(  5-N ,  6-C ) :   0.9141 B(  5-N , 11-C ) :   0.9300 
B(  6-C ,  7-C ) :   1.0461 B(  6-C , 28-H ) :   0.9665 B(  6-C , 29-H ) :   0.9784 
B(  7-C ,  8-C ) :   1.0313 B(  7-C , 30-H ) :   0.9752 B(  7-C , 31-H ) :   0.9657 
B(  8-C ,  9-C ) :   1.0233 B(  8-C , 32-H ) :   0.9717 B(  8-C , 33-H ) :   0.9782 
B(  9-C , 10-C ) :   1.0315 B(  9-C , 34-H ) :   0.9767 B(  9-C , 35-H ) :   0.9773 
B( 10-C , 11-C ) :   1.0345 B( 10-C , 36-H ) :   0.9796 B( 10-C , 37-H ) :   0.9651 
B( 11-C , 38-H ) :   0.9652 B( 11-C , 39-H ) :   0.9809 B( 12-C , 13-C ) :   0.9891 
B( 12-C , 18-C ) :   0.9945 B( 12-C , 40-H ) :   0.9573 B( 13-C , 14-C ) :   1.2289 
B( 13-C , 17-C ) :   1.6521 B( 14-C , 15-C ) :   1.6320 B( 14-C , 41-H ) :   0.9980 
B( 15-C , 16-S ) :   1.1583 B( 15-C , 42-H ) :   0.9783 B( 16-S , 17-C ) :   1.1613 
B( 17-C , 43-H ) :   0.9769 B( 18-C , 19-C ) :   1.0045 B( 18-C , 23-C ) :   1.0036 
B( 18-C , 44-H ) :   0.9450 B( 19-C , 20-C ) :   1.0686 B( 19-C , 45-H ) :   0.9670 
B( 19-C , 46-H ) :   0.9648 B( 20-C , 21-C ) :   1.0204 B( 20-C , 47-H ) :   0.9773 
B( 20-C , 48-H ) :   0.9668 B( 21-C , 22-C ) :   1.0231 B( 21-C , 49-H ) :   0.9770 
B( 21-C , 50-H ) :   0.9764 B( 22-C , 23-C ) :   1.0457 B( 22-C , 51-H ) :   0.9766 
B( 22-C , 52-H ) :   0.9677 B( 23-C , 53-H ) :   0.9784 B( 23-C , 54-H ) :   0.9691 


-------
TIMINGS
-------

Total SCF time: 0 days 0 hours 0 min 38 sec 

Total time                  ....      38.218 sec
Sum of individual times     ....      37.770 sec  ( 98.8%)

Fock matrix formation       ....      36.286 sec  ( 94.9%)
Diagonalization             ....       0.435 sec  (  1.1%)
Density matrix formation    ....       0.029 sec  (  0.1%)
Population analysis         ....       0.058 sec  (  0.2%)
Initial guess               ....       0.219 sec  (  0.6%)
Orbital Transformation      ....       0.000 sec  (  0.0%)
Orbital Orthonormalization  ....       0.000 sec  (  0.0%)
DIIS solution               ....       0.198 sec  (  0.5%)
SOSCF solution              ....       0.298 sec  (  0.8%)

Maximum memory used throughout the entire SCF-calculation: 247.3 MB

-------------------------   --------------------
FINAL SINGLE POINT ENERGY     -1376.246496225974
-------------------------   --------------------


                            ***************************************
                            *     ORCA property calculations      *
                            ***************************************

                                    ---------------------
                                    Active property flags
                                    ---------------------
   (+) Dipole Moment


------------------------------------------------------------------------------
                       ORCA ELECTRIC PROPERTIES CALCULATION
------------------------------------------------------------------------------

Dipole Moment Calculation                       ... on
Quadrupole Moment Calculation                   ... off
Polarizability Calculation                      ... off
GBWName                                         ... ./ZINC000000000132/ZINC000000000132.gbw
Electron density                                ... ./ZINC000000000132/ZINC000000000132.scfp
The origin for moment calculation is the CENTER OF MASS  = (-0.646164, -0.813003 -0.090562)

-------------
DIPOLE MOMENT
-------------
                                X             Y             Z
Electronic contribution:    -16.22927     -18.56677      -2.12957
Nuclear contribution   :     16.12402      18.50379       1.97356
                        -----------------------------------------
Total Dipole Moment    :     -0.10525      -0.06299      -0.15601
                        -----------------------------------------
Magnitude (a.u.)       :      0.19846
Magnitude (Debye)      :      0.50444



--------------------
Rotational spectrum 
--------------------
 
Rotational constants in cm-1:     0.011369     0.003108     0.002599 
Rotational constants in MHz :   340.821715    93.167315    77.925740 

 Dipole components along the rotational axes: 
x,y,z [a.u.] :     0.093725    -0.069229    -0.160648 
x,y,z [Debye]:     0.238231    -0.175966    -0.408336 

 

Timings for individual modules:

Sum of individual times         ...       38.965 sec (=   0.649 min)
GTO integral calculation        ...        0.507 sec (=   0.008 min)   1.3 %
SCF iterations                  ...       38.458 sec (=   0.641 min)  98.7 %
                             ****ORCA TERMINATED NORMALLY****
TOTAL RUN TIME: 0 days 0 hours 0 minutes 39 seconds 380 msec
