
                                 *****************
                                 * O   R   C   A *
                                 *****************

                                            #,                                       
                                            ###                                      
                                            ####                                     
                                            #####                                    
                                            ######                                   
                                           ########,                                 
                                     ,,################,,,,,                         
                               ,,#################################,,                 
                          ,,##########################################,,             
                       ,#########################################, ''#####,          
                    ,#############################################,,   '####,        
                  ,##################################################,,,,####,       
                ,###########''''           ''''###############################       
              ,#####''   ,,,,##########,,,,          '''####'''          '####       
            ,##' ,,,,###########################,,,                        '##       
           ' ,,###''''                  '''############,,,                           
         ,,##''                                '''############,,,,        ,,,,,,###''
      ,#''                                            '''#######################'''  
     '                                                          ''''####''''         
             ,#######,   #######,   ,#######,      ##                                
            ,#'     '#,  ##    ##  ,#'     '#,    #''#        ######   ,####,        
            ##       ##  ##   ,#'  ##            #'  '#       #        #'  '#        
            ##       ##  #######   ##           ,######,      #####,   #    #        
            '#,     ,#'  ##    ##  '#,     ,#' ,#      #,         ##   #,  ,#        
             '#######'   ##     ##  '#######'  #'      '#     #####' # '####'        



                  #######################################################
                  #                        -***-                        #
                  #          Department of theory and spectroscopy      #
                  #    Directorship and core code : Frank Neese         #
                  #        Max Planck Institute fuer Kohlenforschung    #
                  #                Kaiser Wilhelm Platz 1               #
                  #                 D-45470 Muelheim/Ruhr               #
                  #                      Germany                        #
                  #                                                     #
                  #                  All rights reserved                #
                  #                        -***-                        #
                  #######################################################


                         Program Version 5.0.3 -  RELEASE  -


 With contributions from (in alphabetic order):
   Daniel Aravena         : Magnetic Suceptibility
   Michael Atanasov       : Ab Initio Ligand Field Theory (pilot matlab implementation)
   Alexander A. Auer      : GIAO ZORA, VPT2 properties, NMR spectrum
   Ute Becker             : Parallelization
   Giovanni Bistoni       : ED, misc. LED, open-shell LED, HFLD
   Martin Brehm           : Molecular dynamics
   Dmytro Bykov           : SCF Hessian
   Vijay G. Chilkuri      : MRCI spin determinant printing, contributions to CSF-ICE
   Dipayan Datta          : RHF DLPNO-CCSD density
   Achintya Kumar Dutta   : EOM-CC, STEOM-CC
   Dmitry Ganyushin       : Spin-Orbit,Spin-Spin,Magnetic field MRCI
   Miquel Garcia          : C-PCM and meta-GGA Hessian, CC/C-PCM, Gaussian charge scheme
   Yang Guo               : DLPNO-NEVPT2, F12-NEVPT2, CIM, IAO-localization
   Andreas Hansen         : Spin unrestricted coupled pair/coupled cluster methods
   Benjamin Helmich-Paris : MC-RPA, TRAH-SCF, COSX integrals
   Lee Huntington         : MR-EOM, pCC
   Robert Izsak           : Overlap fitted RIJCOSX, COSX-SCS-MP3, EOM
   Marcus Kettner         : VPT2
   Christian Kollmar      : KDIIS, OOCD, Brueckner-CCSD(T), CCSD density, CASPT2, CASPT2-K
   Simone Kossmann        : Meta GGA functionals, TD-DFT gradient, OOMP2, MP2 Hessian
   Martin Krupicka        : Initial AUTO-CI
   Lucas Lang             : DCDCAS
   Marvin Lechner         : AUTO-CI (C++ implementation), FIC-MRCC
   Dagmar Lenk            : GEPOL surface, SMD
   Dimitrios Liakos       : Extrapolation schemes; Compound Job, initial MDCI parallelization
   Dimitrios Manganas     : Further ROCIS development; embedding schemes
   Dimitrios Pantazis     : SARC Basis sets
   Anastasios Papadopoulos: AUTO-CI, single reference methods and gradients
   Taras Petrenko         : DFT Hessian,TD-DFT gradient, ASA, ECA, R-Raman, ABS, FL, XAS/XES, NRVS
   Peter Pinski           : DLPNO-MP2, DLPNO-MP2 Gradient
   Christoph Reimann      : Effective Core Potentials
   Marius Retegan         : Local ZFS, SOC
   Christoph Riplinger    : Optimizer, TS searches, QM/MM, DLPNO-CCSD(T), (RO)-DLPNO pert. Triples
   Tobias Risthaus        : Range-separated hybrids, TD-DFT gradient, RPA, STAB
   Michael Roemelt        : Original ROCIS implementation
   Masaaki Saitow         : Open-shell DLPNO-CCSD energy and density
   Barbara Sandhoefer     : DKH picture change effects
   Avijit Sen             : IP-ROCIS
   Kantharuban Sivalingam : CASSCF convergence, NEVPT2, FIC-MRCI
   Bernardo de Souza      : ESD, SOC TD-DFT
   Georgi Stoychev        : AutoAux, RI-MP2 NMR, DLPNO-MP2 response
   Willem Van den Heuvel  : Paramagnetic NMR
   Boris Wezisla          : Elementary symmetry handling
   Frank Wennmohs         : Technical directorship


 We gratefully acknowledge several colleagues who have allowed us to
 interface, adapt or use parts of their codes:
   Stefan Grimme, W. Hujo, H. Kruse, P. Pracht,  : VdW corrections, initial TS optimization,
                  C. Bannwarth, S. Ehlert          DFT functionals, gCP, sTDA/sTD-DF
   Ed Valeev, F. Pavosevic, A. Kumar             : LibInt (2-el integral package), F12 methods
   Garnet Chan, S. Sharma, J. Yang, R. Olivares  : DMRG
   Ulf Ekstrom                                   : XCFun DFT Library
   Mihaly Kallay                                 : mrcc  (arbitrary order and MRCC methods)
   Jiri Pittner, Ondrej Demel                    : Mk-CCSD
   Frank Weinhold                                : gennbo (NPA and NBO analysis)
   Christopher J. Cramer and Donald G. Truhlar   : smd solvation model
   Lars Goerigk                                  : TD-DFT with DH, B97 family of functionals
   V. Asgeirsson, H. Jonsson                     : NEB implementation
   FAccTs GmbH                                   : IRC, NEB, NEB-TS, DLPNO-Multilevel, CI-OPT
                                                   MM, QMMM, 2- and 3-layer-ONIOM, Crystal-QMMM,
                                                   LR-CPCM, SF, NACMEs, symmetry and pop. for TD-DFT,
                                                   nearIR, NL-DFT gradient (VV10), updates on ESD,
                                                   ML-optimized integration grids
   S Lehtola, MJT Oliveira, MAL Marques          : LibXC Library
   Liviu Ungur et al                             : ANISO software


 Your calculation uses the libint2 library for the computation of 2-el integrals
 For citations please refer to: http://libint.valeyev.net

 Your ORCA version has been built with support for libXC version: 5.1.0
 For citations please refer to: https://tddft.org/programs/libxc/

 This ORCA versions uses:
   CBLAS   interface :  Fast vector & matrix operations
   LAPACKE interface :  Fast linear algebra routines
   SCALAPACK package :  Parallel linear algebra routines
   Shared memory     :  Shared parallel matrices
   BLAS/LAPACK       :  OpenBLAS 0.3.15  USE64BITINT DYNAMIC_ARCH NO_AFFINITY Zen SINGLE_THREADED
        Core in use  :  Zen
   Copyright (c) 2011-2014, The OpenBLAS Project


================================================================================

----- Orbital basis set information -----
Your calculation utilizes the basis: def2-SVP
   F. Weigend and R. Ahlrichs, Phys. Chem. Chem. Phys. 7, 3297 (2005).

================================================================================
                                        WARNINGS
                       Please study these warnings very carefully!
================================================================================


INFO   : the flag for use of the SHARK integral package has been found!

================================================================================
                                       INPUT FILE
================================================================================
NAME = ./ZINC000000000068/ZINC000000000068.inp
|  1> !RHF def2-SVP TightSCF PAL16 
|  2> *xyz 0 1
|  3> C -1.4545808636621131 1.690056981043034 0.9462431947975817
|  4> C -1.3762847706660177 0.2997202437304076 0.3035352129265271
|  5> N -0.616546135689445 0.338770357312178 -0.9645136872354867
|  6> N 0.7604044744890541 0.5974462265181635 -0.7375583170104425
|  7> C 1.6479672747863825 -0.47270157299702803 -0.7165076821960599
|  8> O 1.2882264450683527 -1.644747709677046 -0.7917844340478901
|  9> C 3.093271939998496 -0.12676197137240777 -0.6319145082034003
| 10> C 4.024745329299774 -1.0344110835826739 -1.1522049563091294
| 11> C 5.3901054285685674 -0.7505708732846175 -1.0940726851464464
| 12> C 5.8306692640143964 0.4353143738036546 -0.5079503164134167
| 13> C 4.90944095428152 1.3355744035835948 0.02744629473163552
| 14> C 3.5416140940012055 1.0564436395275323 -0.02923963283492254
| 15> C -2.771947093712404 -0.2579508756010173 0.061256283311367794
| 16> C -3.6676976911067483 0.36539370599858373 -0.823377950547411
| 17> C -4.944244881918385 -0.1592431616444185 -1.0334897113245465
| 18> C -5.341843800370204 -1.3151773202389863 -0.36556530131073783
| 19> C -4.462812577784033 -1.9492425801888813 0.509806673772262
| 20> C -3.1855388386998573 -1.425794207615619 0.7212741045154492
| 21> H -2.06404614404389 1.6633123263171274 1.8569213776352353
| 22> H -1.9003139470360706 2.4306220980093967 0.27242966891310716
| 23> H -0.460139521010494 2.053381495146546 1.227822511026492
| 24> H -0.8568464519065473 -0.3675914523863804 1.0046867003509132
| 25> H -0.6723740878839713 -0.6103029053150406 -1.3627540886888023
| 26> H 1.0999440269756267 1.532598982925775 -0.944536560040006
| 27> H 3.687484681655774 -1.9643886617687867 -1.606489334589946
| 28> H 6.1086848731108345 -1.456865844066565 -1.5027718277748132
| 29> H 6.895041155323523 0.6534371136806535 -0.45999400257702666
| 30> H 5.259314510970335 2.2513595876913888 0.49827249824235303
| 31> H 2.847904728419669 1.7578025143553153 0.4252468671976937
| 32> H -3.367851576129411 1.2621117248784084 -1.3617508549003667
| 33> H -5.62561916933233 0.33269321614427555 -1.7224262627039513
| 34> H -6.334504162974509 -1.7249491189457118 -0.5312575149530687
| 35> H -4.769595230815909 -2.8549641418030363 1.0263414213135074
| 36> H -2.5120322362211582 -1.9403755101789266 1.4035271720238565
| 37> *
| 38> 
| 39>                          ****END OF INPUT****
================================================================================

                       ****************************
                       * Single Point Calculation *
                       ****************************

---------------------------------
CARTESIAN COORDINATES (ANGSTROEM)
---------------------------------
  C     -1.454581    1.690057    0.946243
  C     -1.376285    0.299720    0.303535
  N     -0.616546    0.338770   -0.964514
  N      0.760404    0.597446   -0.737558
  C      1.647967   -0.472702   -0.716508
  O      1.288226   -1.644748   -0.791784
  C      3.093272   -0.126762   -0.631915
  C      4.024745   -1.034411   -1.152205
  C      5.390105   -0.750571   -1.094073
  C      5.830669    0.435314   -0.507950
  C      4.909441    1.335574    0.027446
  C      3.541614    1.056444   -0.029240
  C     -2.771947   -0.257951    0.061256
  C     -3.667698    0.365394   -0.823378
  C     -4.944245   -0.159243   -1.033490
  C     -5.341844   -1.315177   -0.365565
  C     -4.462813   -1.949243    0.509807
  C     -3.185539   -1.425794    0.721274
  H     -2.064046    1.663312    1.856921
  H     -1.900314    2.430622    0.272430
  H     -0.460140    2.053381    1.227823
  H     -0.856846   -0.367591    1.004687
  H     -0.672374   -0.610303   -1.362754
  H      1.099944    1.532599   -0.944537
  H      3.687485   -1.964389   -1.606489
  H      6.108685   -1.456866   -1.502772
  H      6.895041    0.653437   -0.459994
  H      5.259315    2.251360    0.498272
  H      2.847905    1.757803    0.425247
  H     -3.367852    1.262112   -1.361751
  H     -5.625619    0.332693   -1.722426
  H     -6.334504   -1.724949   -0.531258
  H     -4.769595   -2.854964    1.026341
  H     -2.512032   -1.940376    1.403527

----------------------------
CARTESIAN COORDINATES (A.U.)
----------------------------
  NO LB      ZA    FRAG     MASS         X           Y           Z
   0 C     6.0000    0    12.011   -2.748759    3.193745    1.788140
   1 C     6.0000    0    12.011   -2.600801    0.566389    0.573598
   2 N     7.0000    0    14.007   -1.165103    0.640183   -1.822667
   3 N     7.0000    0    14.007    1.436956    1.129010   -1.393783
   4 C     6.0000    0    12.011    3.114207   -0.893277   -1.354003
   5 O     8.0000    0    15.999    2.434395   -3.108123   -1.496256
   6 C     6.0000    0    12.011    5.845437   -0.239545   -1.194145
   7 C     6.0000    0    12.011    7.605666   -1.954754   -2.177352
   8 C     6.0000    0    12.011   10.185823   -1.418373   -2.067498
   9 C     6.0000    0    12.011   11.018368    0.822625   -0.959887
  10 C     6.0000    0    12.011    9.277499    2.523870    0.051866
  11 C     6.0000    0    12.011    6.692681    1.996389   -0.055255
  12 C     6.0000    0    12.011   -5.238221   -0.487457    0.115758
  13 C     6.0000    0    12.011   -6.930944    0.690494   -1.555959
  14 C     6.0000    0    12.011   -9.343269   -0.300926   -1.953013
  15 C     6.0000    0    12.011  -10.094622   -2.485325   -0.690818
  16 C     6.0000    0    12.011   -8.433494   -3.683535    0.963395
  17 C     6.0000    0    12.011   -6.019796   -2.694361    1.363011
  18 H     1.0000    0     1.008   -3.900482    3.143205    3.509073
  19 H     1.0000    0     1.008   -3.591073    4.593210    0.514817
  20 H     1.0000    0     1.008   -0.869538    3.880329    2.320248
  21 H     1.0000    0     1.008   -1.619205   -0.694647    1.898583
  22 H     1.0000    0     1.008   -1.270603   -1.153305   -2.575232
  23 H     1.0000    0     1.008    2.078593    2.896192   -1.784915
  24 H     1.0000    0     1.008    6.968336   -3.712157   -3.035825
  25 H     1.0000    0     1.008   11.543741   -2.753077   -2.839827
  26 H     1.0000    0     1.008   13.029739    1.234817   -0.869263
  27 H     1.0000    0     1.008    9.938664    4.254453    0.941599
  28 H     1.0000    0     1.008    5.381760    3.321765    0.803600
  29 H     1.0000    0     1.008   -6.364317    2.385046   -2.573336
  30 H     1.0000    0     1.008  -10.630880    0.628699   -3.254914
  31 H     1.0000    0     1.008  -11.970478   -3.259681   -1.003931
  32 H     1.0000    0     1.008   -9.013229   -5.395100    1.939504
  33 H     1.0000    0     1.008   -4.747053   -3.666778    2.652282

--------------------------------
INTERNAL COORDINATES (ANGSTROEM)
--------------------------------
 C      0   0   0     0.000000000000     0.00000000     0.00000000
 C      1   0   0     1.533701428330     0.00000000     0.00000000
 N      2   1   0     1.478741261360   111.20084919     0.00000000
 N      3   2   1     1.419300858963   111.47736231    68.70281317
 C      4   3   2     1.390477316070   118.77822508    98.34531484
 O      5   4   3     1.228320886594   123.12680527   354.73602544
 C      5   4   3     1.488534779017   116.21714340   173.17552176
 C      7   5   4     1.400775405360   118.29174057   206.30772653
 C      8   7   5     1.395762453503   120.21506652   180.00260999
 C      9   8   7     1.394259568192   119.97196506     0.46317065
 C     10   9   8     1.394911915175   120.10614013     0.36041058
 C     11  10   9     1.397167705585   120.13513737   359.58962714
 C      2   1   3     1.522356553848   110.60776626   237.29556690
 C     13   2   1     1.404815051121   121.48245398    63.61628023
 C     14  13   2     1.396052837566   120.73519474   180.02401122
 C     15  14  13     1.392979431453   120.04506206   359.83548981
 C     16  15  14     1.393201614598   119.92392357   359.83041776
 C     17  16  15     1.396475877904   120.10851902     0.17472495
 H      1   2   3     1.096128622582   110.75816731   176.96726323
 H      1   2   3     1.095965027611   112.06614649    56.89076203
 H      1   2   3     1.095538770583   111.22354154   296.34172111
 H      2   1   3     1.098514667671   107.89963774   119.10808334
 H      3   2   1     1.030753236924   106.21053605   184.17891724
 H      4   3   2     1.016187865804   117.34276599   255.82214862
 H      8   7   5     1.088566643219   120.16871152     0.15039826
 H      9   8   7     1.087310440056   119.91601394   180.22862847
 H     10   9   8     1.087549934806   119.89259911   179.77001595
 H     11  10   9     1.087543710852   119.81248646   178.98449509
 H     12  11  10     1.086137621992   118.63947281   177.93123939
 H     14  13   2     1.088051599049   120.10326145     0.60043081
 H     15  14  13     1.086694939331   119.90978503   180.12798475
 H     16  15  14     1.086619267344   120.03763558   180.16694873
 H     17  16  15     1.086855689037   119.98560608   180.41375626
 H     18  17  16     1.088059882844   118.93647729   180.43425451

---------------------------
INTERNAL COORDINATES (A.U.)
---------------------------
 C      0   0   0     0.000000000000     0.00000000     0.00000000
 C      1   0   0     2.898275670747     0.00000000     0.00000000
 N      2   1   0     2.794416006900   111.20084919     0.00000000
 N      3   2   1     2.682089925080   111.47736231    68.70281317
 C      4   3   2     2.627621322802   118.77822508    98.34531484
 O      5   4   3     2.321190080237   123.12680527   354.73602544
 C      5   4   3     2.812923073159   116.21714340   173.17552176
 C      7   5   4     2.647081891264   118.29174057   206.30772653
 C      8   7   5     2.637608785130   120.21506652   180.00260999
 C      9   8   7     2.634768743481   119.97196506     0.46317065
 C     10   9   8     2.636001500625   120.10614013     0.36041058
 C     11  10   9     2.640264326716   120.13513737   359.58962714
 C      2   1   3     2.876836964952   110.60776626   237.29556690
 C     13   2   1     2.654715715430   121.48245398    63.61628023
 C     14  13   2     2.638157531483   120.73519474   180.02401122
 C     15  14  13     2.632349635632   120.04506206   359.83548981
 C     16  15  14     2.632769500926   119.92392357   359.83041776
 C     17  16  15     2.638956961867   120.10851902     0.17472495
 H      1   2   3     2.071382904233   110.75816731   176.96726323
 H      1   2   3     2.071073754540   112.06614649    56.89076203
 H      1   2   3     2.070268245495   111.22354154   296.34172111
 H      2   1   3     2.075891875993   107.89963774   119.10808334
 H      3   2   1     1.947841329440   106.21053605   184.17891724
 H      4   3   2     1.920316766983   117.34276599   255.82214862
 H      8   7   5     2.057092834205   120.16871152     0.15039826
 H      9   8   7     2.054718954260   119.91601394   180.22862847
 H     10   9   8     2.055171533748   119.89259911   179.77001595
 H     11  10   9     2.055159772179   119.81248646   178.98449509
 H     12  11  10     2.052502649314   118.63947281   177.93123939
 H     14  13   2     2.056119541777   120.10326145     0.60043081
 H     15  14  13     2.053555826453   119.90978503   180.12798475
 H     16  15  14     2.053412827122   120.03763558   180.16694873
 H     17  16  15     2.053859599374   119.98560608   180.41375626
 H     18  17  16     2.056135195882   118.93647729   180.43425451

---------------------
BASIS SET INFORMATION
---------------------
There are 4 groups of distinct atoms

 Group   1 Type C   : 7s4p1d contracted to 3s2p1d pattern {511/31/1}
 Group   2 Type N   : 7s4p1d contracted to 3s2p1d pattern {511/31/1}
 Group   3 Type O   : 7s4p1d contracted to 3s2p1d pattern {511/31/1}
 Group   4 Type H   : 4s1p contracted to 2s1p pattern {31/1}

Atom   0C    basis set group =>   1
Atom   1C    basis set group =>   1
Atom   2N    basis set group =>   2
Atom   3N    basis set group =>   2
Atom   4C    basis set group =>   1
Atom   5O    basis set group =>   3
Atom   6C    basis set group =>   1
Atom   7C    basis set group =>   1
Atom   8C    basis set group =>   1
Atom   9C    basis set group =>   1
Atom  10C    basis set group =>   1
Atom  11C    basis set group =>   1
Atom  12C    basis set group =>   1
Atom  13C    basis set group =>   1
Atom  14C    basis set group =>   1
Atom  15C    basis set group =>   1
Atom  16C    basis set group =>   1
Atom  17C    basis set group =>   1
Atom  18H    basis set group =>   4
Atom  19H    basis set group =>   4
Atom  20H    basis set group =>   4
Atom  21H    basis set group =>   4
Atom  22H    basis set group =>   4
Atom  23H    basis set group =>   4
Atom  24H    basis set group =>   4
Atom  25H    basis set group =>   4
Atom  26H    basis set group =>   4
Atom  27H    basis set group =>   4
Atom  28H    basis set group =>   4
Atom  29H    basis set group =>   4
Atom  30H    basis set group =>   4
Atom  31H    basis set group =>   4
Atom  32H    basis set group =>   4
Atom  33H    basis set group =>   4


           ************************************************************
           *        Program running with 16 parallel MPI-processes    *
           *              working on a common directory               *
           ************************************************************
------------------------------------------------------------------------------
                           ORCA GTO INTEGRAL CALCULATION
------------------------------------------------------------------------------
------------------------------------------------------------------------------
                   ___                                                        
                  /   \      - P O W E R E D   B Y -                         
                 /     \                                                     
                 |  |  |   _    _      __       _____    __    __             
                 |  |  |  | |  | |    /  \     |  _  \  |  |  /  |          
                  \  \/   | |  | |   /    \    | | | |  |  | /  /          
                 / \  \   | |__| |  /  /\  \   | |_| |  |  |/  /          
                |  |  |   |  __  | /  /__\  \  |    /   |      \           
                |  |  |   | |  | | |   __   |  |    \   |  |\   \          
                \     /   | |  | | |  |  |  |  | |\  \  |  | \   \       
                 \___/    |_|  |_| |__|  |__|  |_| \__\ |__|  \__/        
                                                                              
                      - O R C A' S   B I G   F R I E N D -                    
                                      &                                       
                       - I N T E G R A L  F E E D E R -                       
                                                                              
 v1 FN, 2020, v2 2021                                                         
------------------------------------------------------------------------------


Reading SHARK input file ./ZINC000000000068/ZINC000000000068.SHARKINP.tmp ... ok
----------------------
SHARK INTEGRAL PACKAGE
----------------------

Number of atoms                             ...     34
Number of basis functions                   ...    332
Number of shells                            ...    156
Maximum angular momentum                    ...      2
Integral batch strategy                     ... SHARK/LIBINT Hybrid
RI-J (if used) integral strategy            ... SPLIT-RIJ (Revised 2003 algorithm where possible)
Printlevel                                  ...      1
Contraction scheme used                     ... SEGMENTED contraction
Coulomb Range Separation                    ... NOT USED
Exchange Range Separation                   ... NOT USED
Finite Nucleus Model                        ... NOT USED
Auxiliary Coulomb fitting basis             ... NOT available
Auxiliary J/K fitting basis                 ... NOT available
Auxiliary Correlation fitting basis         ... NOT available
Auxiliary 'external' fitting basis          ... NOT available
Integral threshold                          ...     2.500000e-11
Primitive cut-off                           ...     2.500000e-12
Primitive pair pre-selection threshold      ...     2.500000e-12

Calculating pre-screening integrals         ... done (  0.0 sec) Dimension = 156
Organizing shell pair data                  ... done (  0.0 sec)
Shell pair information
Total number of shell pairs                 ...     12246
Shell pairs after pre-screening             ...      8719
Total number of primitive shell pairs       ...     44238
Primitive shell pairs kept                  ...     20792
          la=0 lb=0:   2733 shell pairs
          la=1 lb=0:   3245 shell pairs
          la=1 lb=1:   1004 shell pairs
          la=2 lb=0:   1024 shell pairs
          la=2 lb=1:    615 shell pairs
          la=2 lb=2:     98 shell pairs

Calculating one electron integrals          ... done (  0.0 sec)
Calculating Nuclear repulsion               ... done (  0.0 sec) ENN=   1185.291303099370 Eh

SHARK setup successfully completed in   0.2 seconds

Maximum memory used throughout the entire GTOINT-calculation: 14.6 MB


           ************************************************************
           *        Program running with 16 parallel MPI-processes    *
           *              working on a common directory               *
           ************************************************************
-------------------------------------------------------------------------------
                                 ORCA SCF
-------------------------------------------------------------------------------

------------
SCF SETTINGS
------------
Hamiltonian:
 Ab initio Hamiltonian  Method          .... Hartree-Fock(GTOs)


General Settings:
 Integral files         IntName         .... ./ZINC000000000068/ZINC000000000068
 Hartree-Fock type      HFTyp           .... RHF
 Total Charge           Charge          ....    0
 Multiplicity           Mult            ....    1
 Number of Electrons    NEL             ....  128
 Basis Dimension        Dim             ....  332
 Nuclear Repulsion      ENuc            ....   1185.2913030994 Eh

Convergence Acceleration:
 DIIS                   CNVDIIS         .... on
   Start iteration      DIISMaxIt       ....    12
   Startup error        DIISStart       ....  0.200000
   # of expansion vecs  DIISMaxEq       ....     5
   Bias factor          DIISBfac        ....   1.050
   Max. coefficient     DIISMaxC        ....  10.000
 Trust-Rad. Augm. Hess. CNVTRAH         .... auto
   Auto Start mean grad. ratio tolernc. ....  1.125000
   Auto Start start iteration           ....    20
   Auto Start num. interpolation iter.  ....    10
   Max. Number of Micro iterations      ....    16
   Max. Number of Macro iterations      .... Maxiter - #DIIS iter
   Number of Davidson start vectors     ....     2
   Converg. threshold I  (grad. norm)   ....   1.000e-05
   Converg. threshold II (energy diff.) ....   1.000e-08
   Grad. Scal. Fac. for Micro threshold ....   0.100
   Minimum threshold for Micro iter.    ....   0.010
   NR start threshold (gradient norm)   ....   0.001
   Initial trust radius                 ....   0.400
   Minimum AH scaling param. (alpha)    ....   1.000
   Maximum AH scaling param. (alpha)    .... 1000.000
   Orbital update algorithm             .... Taylor
   White noise on init. David. guess    .... on
   Maximum white noise                  ....   0.010
   Quad. conv. algorithm                .... NR
 SOSCF                  CNVSOSCF        .... on
   Start iteration      SOSCFMaxIt      ....   150
   Startup grad/error   SOSCFStart      ....  0.003300
 Level Shifting         CNVShift        .... on
   Level shift para.    LevelShift      ....    0.2500
   Turn off err/grad.   ShiftErr        ....    0.0010
 Zerner damping         CNVZerner       .... off
 Static damping         CNVDamp         .... on
   Fraction old density DampFac         ....    0.7000
   Max. Damping (<1)    DampMax         ....    0.9800
   Min. Damping (>=0)   DampMin         ....    0.0000
   Turn off err/grad.   DampErr         ....    0.1000
 Fernandez-Rico         CNVRico         .... off

SCF Procedure:
 Maximum # iterations   MaxIter         ....   125
 SCF integral mode      SCFMode         .... Direct
   Integral package                     .... SHARK and LIBINT hybrid scheme
 Reset frequency        DirectResetFreq ....    20
 Integral Threshold     Thresh          ....  2.500e-11 Eh
 Primitive CutOff       TCut            ....  2.500e-12 Eh

Convergence Tolerance:
 Convergence Check Mode ConvCheckMode   .... Total+1el-Energy
 Convergence forced     ConvForced      .... 0
 Energy Change          TolE            ....  1.000e-08 Eh
 1-El. energy change                    ....  1.000e-05 Eh
 Orbital Gradient       TolG            ....  1.000e-05
 Orbital Rotation angle TolX            ....  1.000e-05
 DIIS Error             TolErr          ....  5.000e-07


Diagonalization of the overlap matrix:
Smallest eigenvalue                        ... 2.941e-04
Time for diagonalization                   ...    0.013 sec
Threshold for overlap eigenvalues          ... 1.000e-08
Number of eigenvalues below threshold      ... 0
Time for construction of square roots      ...    0.010 sec
Total time needed                          ...    0.024 sec

Time for model grid setup =    0.131 sec

------------------------------
INITIAL GUESS: MODEL POTENTIAL
------------------------------
Loading Hartree-Fock densities                     ... done
Calculating cut-offs                               ... done
Initializing the effective Hamiltonian             ... done
Setting up the integral package (SHARK)            ... done
Starting the Coulomb interaction                   ... done (   0.0 sec)
Reading the grid                                   ... done
Mapping shells                                     ... done
Starting the XC term evaluation                    ... done (   0.0 sec)
Transforming the Hamiltonian                       ... done (   0.0 sec)
Diagonalizing the Hamiltonian                      ... done (   0.0 sec)
Back transforming the eigenvectors                 ... done (   0.0 sec)
Now organizing SCF variables                       ... done
                      ------------------
                      INITIAL GUESS DONE (   0.2 sec)
                      ------------------
--------------
SCF ITERATIONS
--------------
ITER       Energy         Delta-E        Max-DP      RMS-DP      [F,P]     Damp
               ***  Starting incremental Fock matrix formation  ***
  0   -759.9202256230   0.000000000000 0.06587626  0.00202367  0.2611498 0.7000
  1   -760.1269439973  -0.206718374387 0.04654401  0.00160309  0.1584950 0.7000
                               ***Turning on DIIS***
  2   -760.2553073716  -0.128363374252 0.11415977  0.00374791  0.0890466 0.0000
  3   -759.4308254605   0.824481911101 0.03520561  0.00069439  0.0537387 0.0000
  4   -760.5607375637  -1.129912103198 0.01221966  0.00027050  0.0112575 0.0000
  5   -760.5362242893   0.024513274372 0.00612155  0.00012200  0.0079589 0.0000
                      *** Initiating the SOSCF procedure ***
                           *** Shutting down DIIS ***
                      *** Re-Reading the Fockian *** 
                      *** Removing any level shift *** 
ITER      Energy       Delta-E        Grad      Rot      Max-DP    RMS-DP
  6   -760.52492368   0.0113006118  0.001778  0.001778  0.002703  0.000056
               *** Restarting incremental Fock matrix formation ***
  7   -760.52723407  -0.0023103936  0.000832  0.001790  0.001425  0.000031
  8   -760.52725517  -0.0000210970  0.000397  0.001913  0.001770  0.000033
  9   -760.52726362  -0.0000084482  0.000091  0.000139  0.000370  0.000006
 10   -760.52726395  -0.0000003300  0.000062  0.000071  0.000133  0.000002
 11   -760.52726409  -0.0000001436  0.000017  0.000063  0.000061  0.000001
 12   -760.52726411  -0.0000000229  0.000010  0.000038  0.000022  0.000000
 13   -760.52726411  -0.0000000017  0.000003  0.000013  0.000012  0.000000
                  ***Gradient check signals convergence***
              ***Rediagonalizing the Fockian in SOSCF/NRSCF***

               *****************************************************
               *                     SUCCESS                       *
               *           SCF CONVERGED AFTER  14 CYCLES          *
               *****************************************************


----------------
TOTAL SCF ENERGY
----------------

Total Energy       :         -760.52726411 Eh          -20694.99897 eV

Components:
Nuclear Repulsion  :         1185.29130310 Eh           32253.41609 eV
Electronic Energy  :        -1945.81856721 Eh          -52948.41506 eV
One Electron Energy:        -3386.17124598 Eh          -92142.40403 eV
Two Electron Energy:         1440.35267877 Eh           39193.98897 eV

Virial components:
Potential Energy   :        -1517.07895691 Eh          -41281.81714 eV
Kinetic Energy     :          756.55169279 Eh           20586.81817 eV
Virial Ratio       :            2.00525486


---------------
SCF CONVERGENCE
---------------

  Last Energy change         ...    3.0309e-10  Tolerance :   1.0000e-08
  Last MAX-Density change    ...    8.0203e-06  Tolerance :   1.0000e-07
  Last RMS-Density change    ...    1.1279e-07  Tolerance :   5.0000e-09
  Last Orbital Gradient      ...    9.9389e-07  Tolerance :   1.0000e-05
  Last Orbital Rotation      ...    3.4155e-06  Tolerance :   1.0000e-05

             **** THE GBW FILE WAS UPDATED (./ZINC000000000068/ZINC000000000068.gbw) ****
             **** DENSITY ./ZINC000000000068/ZINC000000000068.scfp WAS UPDATED ****
             **** ENERGY FILE WAS UPDATED (./ZINC000000000068/ZINC000000000068.en.tmp) ****
             **** THE GBW FILE WAS UPDATED (./ZINC000000000068/ZINC000000000068.gbw) ****
             **** DENSITY ./ZINC000000000068/ZINC000000000068.scfp WAS UPDATED ****
----------------
ORBITAL ENERGIES
----------------

  NO   OCC          E(Eh)            E(eV) 
   0   2.0000     -20.523592      -558.4753 
   1   2.0000     -15.612563      -424.8394 
   2   2.0000     -15.586122      -424.1200 
   3   2.0000     -11.364342      -309.2395 
   4   2.0000     -11.264619      -306.5259 
   5   2.0000     -11.262707      -306.4738 
   6   2.0000     -11.257877      -306.3424 
   7   2.0000     -11.256882      -306.3153 
   8   2.0000     -11.255043      -306.2653 
   9   2.0000     -11.253816      -306.2319 
  10   2.0000     -11.250908      -306.1528 
  11   2.0000     -11.240954      -305.8819 
  12   2.0000     -11.236683      -305.7657 
  13   2.0000     -11.236506      -305.7609 
  14   2.0000     -11.235565      -305.7353 
  15   2.0000     -11.235132      -305.7235 
  16   2.0000     -11.234352      -305.7023 
  17   2.0000     -11.223991      -305.4203 
  18   2.0000      -1.375184       -37.4206 
  19   2.0000      -1.279793       -34.8249 
  20   2.0000      -1.161685       -31.6111 
  21   2.0000      -1.146048       -31.1856 
  22   2.0000      -1.104130       -30.0449 
  23   2.0000      -1.038376       -28.2556 
  24   2.0000      -1.020042       -27.7568 
  25   2.0000      -1.004357       -27.3299 
  26   2.0000      -1.000305       -27.2197 
  27   2.0000      -0.965897       -26.2834 
  28   2.0000      -0.873489       -23.7688 
  29   2.0000      -0.844600       -22.9827 
  30   2.0000      -0.833183       -22.6721 
  31   2.0000      -0.817295       -22.2397 
  32   2.0000      -0.795570       -21.6486 
  33   2.0000      -0.776828       -21.1386 
  34   2.0000      -0.744333       -20.2543 
  35   2.0000      -0.702136       -19.1061 
  36   2.0000      -0.684434       -18.6244 
  37   2.0000      -0.678456       -18.4617 
  38   2.0000      -0.656352       -17.8602 
  39   2.0000      -0.646351       -17.5881 
  40   2.0000      -0.633291       -17.2327 
  41   2.0000      -0.625876       -17.0310 
  42   2.0000      -0.611350       -16.6357 
  43   2.0000      -0.606104       -16.4929 
  44   2.0000      -0.601432       -16.3658 
  45   2.0000      -0.593136       -16.1400 
  46   2.0000      -0.581833       -15.8325 
  47   2.0000      -0.574360       -15.6291 
  48   2.0000      -0.541891       -14.7456 
  49   2.0000      -0.529350       -14.4043 
  50   2.0000      -0.527552       -14.3554 
  51   2.0000      -0.519839       -14.1455 
  52   2.0000      -0.512102       -13.9350 
  53   2.0000      -0.507394       -13.8069 
  54   2.0000      -0.494259       -13.4495 
  55   2.0000      -0.490947       -13.3593 
  56   2.0000      -0.476770       -12.9736 
  57   2.0000      -0.446669       -12.1545 
  58   2.0000      -0.431975       -11.7546 
  59   2.0000      -0.376983       -10.2582 
  60   2.0000      -0.354361        -9.6426 
  61   2.0000      -0.350430        -9.5357 
  62   2.0000      -0.334730        -9.1085 
  63   2.0000      -0.329830        -8.9751 
  64   0.0000       0.088295         2.4026 
  65   0.0000       0.116177         3.1613 
  66   0.0000       0.130941         3.5631 
  67   0.0000       0.134089         3.6488 
  68   0.0000       0.164510         4.4765 
  69   0.0000       0.185948         5.0599 
  70   0.0000       0.192465         5.2372 
  71   0.0000       0.208776         5.6811 
  72   0.0000       0.214020         5.8238 
  73   0.0000       0.215082         5.8527 
  74   0.0000       0.230125         6.2620 
  75   0.0000       0.240065         6.5325 
  76   0.0000       0.242635         6.6024 
  77   0.0000       0.246366         6.7040 
  78   0.0000       0.248381         6.7588 
  79   0.0000       0.267706         7.2847 
  80   0.0000       0.268106         7.2955 
  81   0.0000       0.275295         7.4912 
  82   0.0000       0.294617         8.0169 
  83   0.0000       0.309835         8.4310 
  84   0.0000       0.322703         8.7812 
  85   0.0000       0.341306         9.2874 
  86   0.0000       0.346712         9.4345 
  87   0.0000       0.376953        10.2574 
  88   0.0000       0.386961        10.5298 
  89   0.0000       0.398358        10.8399 
  90   0.0000       0.418845        11.3974 
  91   0.0000       0.433586        11.7985 
  92   0.0000       0.441047        12.0015 
  93   0.0000       0.451703        12.2915 
  94   0.0000       0.459154        12.4942 
  95   0.0000       0.462891        12.5959 
  96   0.0000       0.466105        12.6834 
  97   0.0000       0.471026        12.8173 
  98   0.0000       0.477390        12.9904 
  99   0.0000       0.489480        13.3194 
 100   0.0000       0.502988        13.6870 
 101   0.0000       0.528262        14.3747 
 102   0.0000       0.536137        14.5890 
 103   0.0000       0.544441        14.8150 
 104   0.0000       0.574149        15.6234 
 105   0.0000       0.578520        15.7423 
 106   0.0000       0.589405        16.0385 
 107   0.0000       0.593599        16.1526 
 108   0.0000       0.608484        16.5577 
 109   0.0000       0.612639        16.6707 
 110   0.0000       0.630379        17.1535 
 111   0.0000       0.643287        17.5047 
 112   0.0000       0.655223        17.8295 
 113   0.0000       0.659681        17.9508 
 114   0.0000       0.667199        18.1554 
 115   0.0000       0.669146        18.2084 
 116   0.0000       0.680451        18.5160 
 117   0.0000       0.685158        18.6441 
 118   0.0000       0.691270        18.8104 
 119   0.0000       0.695266        18.9192 
 120   0.0000       0.699273        19.0282 
 121   0.0000       0.714955        19.4549 
 122   0.0000       0.735241        20.0069 
 123   0.0000       0.748192        20.3594 
 124   0.0000       0.755682        20.5631 
 125   0.0000       0.765171        20.8213 
 126   0.0000       0.780750        21.2453 
 127   0.0000       0.790580        21.5128 
 128   0.0000       0.803977        21.8773 
 129   0.0000       0.810400        22.0521 
 130   0.0000       0.822563        22.3831 
 131   0.0000       0.829216        22.5641 
 132   0.0000       0.835288        22.7293 
 133   0.0000       0.852180        23.1890 
 134   0.0000       0.855665        23.2838 
 135   0.0000       0.861194        23.4343 
 136   0.0000       0.869570        23.6622 
 137   0.0000       0.875656        23.8278 
 138   0.0000       0.876538        23.8518 
 139   0.0000       0.882656        24.0183 
 140   0.0000       0.886871        24.1330 
 141   0.0000       0.897169        24.4132 
 142   0.0000       0.902482        24.5578 
 143   0.0000       0.912843        24.8397 
 144   0.0000       0.917538        24.9675 
 145   0.0000       0.919841        25.0301 
 146   0.0000       0.923028        25.1169 
 147   0.0000       0.931694        25.3527 
 148   0.0000       0.936495        25.4833 
 149   0.0000       0.938190        25.5294 
 150   0.0000       0.944438        25.6995 
 151   0.0000       0.956434        26.0259 
 152   0.0000       0.960553        26.1380 
 153   0.0000       0.964024        26.2324 
 154   0.0000       0.973431        26.4884 
 155   0.0000       0.977680        26.6040 
 156   0.0000       0.984620        26.7929 
 157   0.0000       0.994912        27.0729 
 158   0.0000       0.997987        27.1566 
 159   0.0000       1.000184        27.2164 
 160   0.0000       1.013976        27.5917 
 161   0.0000       1.017726        27.6937 
 162   0.0000       1.034220        28.1426 
 163   0.0000       1.067362        29.0444 
 164   0.0000       1.074744        29.2453 
 165   0.0000       1.082294        29.4507 
 166   0.0000       1.092678        29.7333 
 167   0.0000       1.101919        29.9847 
 168   0.0000       1.114350        30.3230 
 169   0.0000       1.146797        31.2059 
 170   0.0000       1.171223        31.8706 
 171   0.0000       1.199330        32.6354 
 172   0.0000       1.207051        32.8455 
 173   0.0000       1.210782        32.9471 
 174   0.0000       1.226074        33.3632 
 175   0.0000       1.262588        34.3568 
 176   0.0000       1.278972        34.8026 
 177   0.0000       1.291105        35.1328 
 178   0.0000       1.306563        35.5534 
 179   0.0000       1.322223        35.9795 
 180   0.0000       1.335311        36.3357 
 181   0.0000       1.379024        37.5252 
 182   0.0000       1.414372        38.4870 
 183   0.0000       1.418775        38.6068 
 184   0.0000       1.437473        39.1156 
 185   0.0000       1.455249        39.5993 
 186   0.0000       1.470437        40.0126 
 187   0.0000       1.481433        40.3118 
 188   0.0000       1.499327        40.7988 
 189   0.0000       1.503533        40.9132 
 190   0.0000       1.507045        41.0088 
 191   0.0000       1.514804        41.2199 
 192   0.0000       1.519028        41.3349 
 193   0.0000       1.522706        41.4349 
 194   0.0000       1.533797        41.7367 
 195   0.0000       1.549560        42.1657 
 196   0.0000       1.550513        42.1916 
 197   0.0000       1.563361        42.5412 
 198   0.0000       1.569295        42.7027 
 199   0.0000       1.577103        42.9152 
 200   0.0000       1.608054        43.7574 
 201   0.0000       1.634933        44.4888 
 202   0.0000       1.652319        44.9619 
 203   0.0000       1.663549        45.2675 
 204   0.0000       1.727012        46.9944 
 205   0.0000       1.743772        47.4504 
 206   0.0000       1.756762        47.8039 
 207   0.0000       1.773287        48.2536 
 208   0.0000       1.813589        49.3503 
 209   0.0000       1.851617        50.3850 
 210   0.0000       1.903113        51.7863 
 211   0.0000       1.914886        52.1067 
 212   0.0000       1.926727        52.4289 
 213   0.0000       1.931092        52.5477 
 214   0.0000       1.942719        52.8641 
 215   0.0000       1.955822        53.2206 
 216   0.0000       1.972232        53.6672 
 217   0.0000       1.983543        53.9750 
 218   0.0000       1.985627        54.0317 
 219   0.0000       2.005695        54.5777 
 220   0.0000       2.012640        54.7667 
 221   0.0000       2.023010        55.0489 
 222   0.0000       2.027099        55.1602 
 223   0.0000       2.028658        55.2026 
 224   0.0000       2.031499        55.2799 
 225   0.0000       2.038753        55.4773 
 226   0.0000       2.042660        55.5836 
 227   0.0000       2.044401        55.6310 
 228   0.0000       2.052833        55.8604 
 229   0.0000       2.056832        55.9692 
 230   0.0000       2.065223        56.1976 
 231   0.0000       2.066861        56.2422 
 232   0.0000       2.071701        56.3738 
 233   0.0000       2.090264        56.8790 
 234   0.0000       2.095884        57.0319 
 235   0.0000       2.104749        57.2731 
 236   0.0000       2.118136        57.6374 
 237   0.0000       2.136396        58.1343 
 238   0.0000       2.154558        58.6285 
 239   0.0000       2.176243        59.2186 
 240   0.0000       2.180761        59.3415 
 241   0.0000       2.186088        59.4865 
 242   0.0000       2.209329        60.1189 
 243   0.0000       2.222070        60.4656 
 244   0.0000       2.225772        60.5663 
 245   0.0000       2.249188        61.2035 
 246   0.0000       2.253781        61.3285 
 247   0.0000       2.266540        61.6757 
 248   0.0000       2.277141        61.9641 
 249   0.0000       2.279777        62.0359 
 250   0.0000       2.282676        62.1148 
 251   0.0000       2.285312        62.1865 
 252   0.0000       2.297835        62.5273 
 253   0.0000       2.317838        63.0716 
 254   0.0000       2.325467        63.2792 
 255   0.0000       2.335940        63.5641 
 256   0.0000       2.371011        64.5185 
 257   0.0000       2.386650        64.9441 
 258   0.0000       2.392841        65.1125 
 259   0.0000       2.401447        65.3467 
 260   0.0000       2.424768        65.9813 
 261   0.0000       2.433079        66.2074 
 262   0.0000       2.439911        66.3934 
 263   0.0000       2.448991        66.6404 
 264   0.0000       2.454445        66.7888 
 265   0.0000       2.462239        67.0009 
 266   0.0000       2.472819        67.2888 
 267   0.0000       2.497013        67.9472 
 268   0.0000       2.547635        69.3247 
 269   0.0000       2.588917        70.4480 
 270   0.0000       2.609904        71.0191 
 271   0.0000       2.613567        71.1188 
 272   0.0000       2.617045        71.2134 
 273   0.0000       2.620651        71.3116 
 274   0.0000       2.625660        71.4478 
 275   0.0000       2.635327        71.7109 
 276   0.0000       2.640982        71.8648 
 277   0.0000       2.655404        72.2572 
 278   0.0000       2.656821        72.2958 
 279   0.0000       2.667265        72.5800 
 280   0.0000       2.674499        72.7768 
 281   0.0000       2.692069        73.2549 
 282   0.0000       2.706580        73.6498 
 283   0.0000       2.754945        74.9659 
 284   0.0000       2.794949        76.0544 
 285   0.0000       2.817834        76.6772 
 286   0.0000       2.822586        76.8065 
 287   0.0000       2.851100        77.5824 
 288   0.0000       2.874203        78.2110 
 289   0.0000       2.893035        78.7235 
 290   0.0000       2.907139        79.1073 
 291   0.0000       2.943055        80.0846 
 292   0.0000       2.952258        80.3350 
 293   0.0000       2.959567        80.5339 
 294   0.0000       2.967728        80.7560 
 295   0.0000       2.972493        80.8857 
 296   0.0000       2.985824        81.2484 
 297   0.0000       2.992191        81.4217 
 298   0.0000       3.054807        83.1255 
 299   0.0000       3.069899        83.5362 
 300   0.0000       3.073103        83.6234 
 301   0.0000       3.077873        83.7532 
 302   0.0000       3.086597        83.9906 
 303   0.0000       3.093466        84.1775 
 304   0.0000       3.096066        84.2482 
 305   0.0000       3.158362        85.9434 
 306   0.0000       3.189801        86.7989 
 307   0.0000       3.206218        87.2456 
 308   0.0000       3.215232        87.4909 
 309   0.0000       3.219457        87.6059 
 310   0.0000       3.233257        87.9814 
 311   0.0000       3.239616        88.1544 
 312   0.0000       3.253026        88.5193 
 313   0.0000       3.273161        89.0672 
 314   0.0000       3.307711        90.0074 
 315   0.0000       3.357987        91.3755 
 316   0.0000       3.385345        92.1199 
 317   0.0000       3.393421        92.3397 
 318   0.0000       3.420123        93.0663 
 319   0.0000       3.473327        94.5140 
 320   0.0000       3.475620        94.5764 
 321   0.0000       3.496379        95.1413 
 322   0.0000       3.538195        96.2792 
 323   0.0000       3.551096        96.6302 
 324   0.0000       3.614718        98.3615 
 325   0.0000       3.636347        98.9500 
 326   0.0000       3.672086        99.9225 
 327   0.0000       3.848786       104.7308 
 328   0.0000       3.878046       105.5270 
 329   0.0000       4.021011       109.4173 
 330   0.0000       4.035578       109.8137 
 331   0.0000       4.079634       111.0125 

                    ********************************
                    * MULLIKEN POPULATION ANALYSIS *
                    ********************************

-----------------------
MULLIKEN ATOMIC CHARGES
-----------------------
   0 C :    0.018360
   1 C :    0.165858
   2 N :   -0.240047
   3 N :   -0.351712
   4 C :    0.557277
   5 O :   -0.450059
   6 C :   -0.213662
   7 C :    0.024940
   8 C :   -0.043408
   9 C :   -0.018659
  10 C :   -0.044210
  11 C :   -0.013402
  12 C :   -0.187777
  13 C :    0.002311
  14 C :   -0.036919
  15 C :   -0.036214
  16 C :   -0.037214
  17 C :   -0.018114
  18 H :    0.039588
  19 H :    0.030424
  20 H :    0.023819
  21 H :    0.027256
  22 H :    0.162861
  23 H :    0.179389
  24 H :    0.069767
  25 H :    0.049957
  26 H :    0.050023
  27 H :    0.046801
  28 H :    0.041988
  29 H :    0.043023
  30 H :    0.039554
  31 H :    0.039906
  32 H :    0.040031
  33 H :    0.038265
Sum of atomic charges:   -0.0000000

--------------------------------
MULLIKEN REDUCED ORBITAL CHARGES
--------------------------------
  0 C s       :     3.028175  s :     3.028175
      pz      :     0.983033  p :     2.916755
      px      :     1.000806
      py      :     0.932917
      dz2     :     0.004826  d :     0.036709
      dxz     :     0.008019
      dyz     :     0.008979
      dx2y2   :     0.008952
      dxy     :     0.005934
  1 C s       :     3.056545  s :     3.056545
      pz      :     0.832790  p :     2.709541
      px      :     0.863078
      py      :     1.013674
      dz2     :     0.012742  d :     0.068056
      dxz     :     0.016616
      dyz     :     0.015962
      dx2y2   :     0.012549
      dxy     :     0.010187
  2 N s       :     3.506302  s :     3.506302
      pz      :     1.352738  p :     3.697285
      px      :     0.947160
      py      :     1.397387
      dz2     :     0.008139  d :     0.036460
      dxz     :     0.009380
      dyz     :     0.002978
      dx2y2   :     0.013390
      dxy     :     0.002573
  3 N s       :     3.429587  s :     3.429587
      pz      :     1.731820  p :     3.889425
      px      :     1.036803
      py      :     1.120802
      dz2     :     0.002464  d :     0.032700
      dxz     :     0.005502
      dyz     :     0.001883
      dx2y2   :     0.009640
      dxy     :     0.013211
  4 C s       :     2.987276  s :     2.987276
      pz      :     0.688317  p :     2.321014
      px      :     0.829006
      py      :     0.803691
      dz2     :     0.007838  d :     0.134433
      dxz     :     0.009399
      dyz     :     0.033007
      dx2y2   :     0.035438
      dxy     :     0.048752
  5 O s       :     3.792297  s :     3.792297
      pz      :     1.491442  p :     4.637990
      px      :     1.783576
      py      :     1.362971
      dz2     :     0.002272  d :     0.019772
      dxz     :     0.000546
      dyz     :     0.005811
      dx2y2   :     0.006389
      dxy     :     0.004754
  6 C s       :     3.067330  s :     3.067330
      pz      :     1.065307  p :     3.097829
      px      :     1.007148
      py      :     1.025374
      dz2     :     0.006450  d :     0.048503
      dxz     :     0.005849
      dyz     :     0.007466
      dx2y2   :     0.016055
      dxy     :     0.012683
  7 C s       :     3.167721  s :     3.167721
      pz      :     0.929903  p :     2.763983
      px      :     0.901628
      py      :     0.932452
      dz2     :     0.004341  d :     0.043356
      dxz     :     0.008677
      dyz     :     0.004954
      dx2y2   :     0.012130
      dxy     :     0.013254
  8 C s       :     3.131124  s :     3.131124
      pz      :     0.979079  p :     2.868839
      px      :     0.940712
      py      :     0.949048
      dz2     :     0.004503  d :     0.043445
      dxz     :     0.007361
      dyz     :     0.005839
      dx2y2   :     0.012653
      dxy     :     0.013090
  9 C s       :     3.130461  s :     3.130461
      pz      :     0.952949  p :     2.843961
      px      :     0.936979
      py      :     0.954033
      dz2     :     0.005775  d :     0.044237
      dxz     :     0.005805
      dyz     :     0.007417
      dx2y2   :     0.013090
      dxy     :     0.012150
 10 C s       :     3.129241  s :     3.129241
      pz      :     0.981502  p :     2.871586
      px      :     0.942248
      py      :     0.947836
      dz2     :     0.004333  d :     0.043383
      dxz     :     0.008462
      dyz     :     0.005029
      dx2y2   :     0.012740
      dxy     :     0.012820
 11 C s       :     3.151373  s :     3.151373
      pz      :     0.957317  p :     2.818531
      px      :     0.926628
      py      :     0.934585
      dz2     :     0.004725  d :     0.043499
      dxz     :     0.007969
      dyz     :     0.006046
      dx2y2   :     0.011985
      dxy     :     0.012773
 12 C s       :     3.068198  s :     3.068198
      pz      :     1.018432  p :     3.068964
      px      :     1.035080
      py      :     1.015452
      dz2     :     0.008243  d :     0.050615
      dxz     :     0.009055
      dyz     :     0.008107
      dx2y2   :     0.012820
      dxy     :     0.012390
 13 C s       :     3.158715  s :     3.158715
      pz      :     0.958654  p :     2.796125
      px      :     0.895928
      py      :     0.941543
      dz2     :     0.006159  d :     0.042849
      dxz     :     0.009358
      dyz     :     0.006291
      dx2y2   :     0.010344
      dxy     :     0.010696
 14 C s       :     3.129952  s :     3.129952
      pz      :     0.960531  p :     2.862917
      px      :     0.946068
      py      :     0.956318
      dz2     :     0.005398  d :     0.044050
      dxz     :     0.008832
      dyz     :     0.007324
      dx2y2   :     0.011322
      dxy     :     0.011174
 15 C s       :     3.127390  s :     3.127390
      pz      :     0.970493  p :     2.864796
      px      :     0.936938
      py      :     0.957366
      dz2     :     0.007676  d :     0.044027
      dxz     :     0.007503
      dyz     :     0.008055
      dx2y2   :     0.010300
      dxy     :     0.010493
 16 C s       :     3.129724  s :     3.129724
      pz      :     0.964303  p :     2.863594
      px      :     0.954279
      py      :     0.945013
      dz2     :     0.006315  d :     0.043896
      dxz     :     0.009439
      dyz     :     0.006482
      dx2y2   :     0.010693
      dxy     :     0.010967
 17 C s       :     3.156573  s :     3.156573
      pz      :     0.958722  p :     2.818391
      px      :     0.911336
      py      :     0.948333
      dz2     :     0.005235  d :     0.043150
      dxz     :     0.008581
      dyz     :     0.007086
      dx2y2   :     0.011222
      dxy     :     0.011027
 18 H s       :     0.935099  s :     0.935099
      pz      :     0.013468  p :     0.025313
      px      :     0.008555
      py      :     0.003290
 19 H s       :     0.944557  s :     0.944557
      pz      :     0.009145  p :     0.025020
      px      :     0.006359
      py      :     0.009516
 20 H s       :     0.950840  s :     0.950840
      pz      :     0.005101  p :     0.025340
      px      :     0.015373
      py      :     0.004867
 21 H s       :     0.950705  s :     0.950705
      pz      :     0.008027  p :     0.022039
      px      :     0.005842
      py      :     0.008170
 22 H s       :     0.791995  s :     0.791995
      pz      :     0.012735  p :     0.045144
      px      :     0.004608
      py      :     0.027801
 23 H s       :     0.775582  s :     0.775582
      pz      :     0.012763  p :     0.045030
      px      :     0.005161
      py      :     0.027106
 24 H s       :     0.903993  s :     0.903993
      pz      :     0.006147  p :     0.026239
      px      :     0.004484
      py      :     0.015608
 25 H s       :     0.924535  s :     0.924535
      pz      :     0.005971  p :     0.025508
      px      :     0.009698
      py      :     0.009839
 26 H s       :     0.924554  s :     0.924554
      pz      :     0.003502  p :     0.025422
      px      :     0.018542
      py      :     0.003379
 27 H s       :     0.927626  s :     0.927626
      pz      :     0.006811  p :     0.025574
      px      :     0.004163
      py      :     0.014599
 28 H s       :     0.932183  s :     0.932183
      pz      :     0.006995  p :     0.025829
      px      :     0.009117
      py      :     0.009717
 29 H s       :     0.931385  s :     0.931385
      pz      :     0.007523  p :     0.025592
      px      :     0.004008
      py      :     0.014061
 30 H s       :     0.935010  s :     0.935010
      pz      :     0.009991  p :     0.025437
      px      :     0.009138
      py      :     0.006308
 31 H s       :     0.934651  s :     0.934651
      pz      :     0.003725  p :     0.025443
      px      :     0.016435
      py      :     0.005282
 32 H s       :     0.934506  s :     0.934506
      pz      :     0.007061  p :     0.025462
      px      :     0.003950
      py      :     0.014452
 33 H s       :     0.936179  s :     0.936179
      pz      :     0.009835  p :     0.025556
      px      :     0.009007
      py      :     0.006714


                     *******************************
                     * LOEWDIN POPULATION ANALYSIS *
                     *******************************

----------------------
LOEWDIN ATOMIC CHARGES
----------------------
   0 C :   -0.032909
   1 C :    0.050387
   2 N :   -0.068871
   3 N :   -0.036024
   4 C :    0.184723
   5 O :   -0.311980
   6 C :   -0.082596
   7 C :    0.025145
   8 C :   -0.025796
   9 C :   -0.004581
  10 C :   -0.028806
  11 C :   -0.010681
  12 C :   -0.037138
  13 C :   -0.014708
  14 C :   -0.024422
  15 C :   -0.027659
  16 C :   -0.024599
  17 C :   -0.022342
  18 H :    0.023574
  19 H :    0.016828
  20 H :    0.009928
  21 H :    0.006784
  22 H :    0.066795
  23 H :    0.077726
  24 H :    0.041702
  25 H :    0.030719
  26 H :    0.030478
  27 H :    0.029329
  28 H :    0.026253
  29 H :    0.027185
  30 H :    0.026330
  31 H :    0.025655
  32 H :    0.026675
  33 H :    0.026893

-------------------------------
LOEWDIN REDUCED ORBITAL CHARGES
-------------------------------
  0 C s       :     2.838940  s :     2.838940
      pz      :     1.046819  p :     3.111829
      px      :     1.051999
      py      :     1.013012
      dz2     :     0.010563  d :     0.082140
      dxz     :     0.017856
      dyz     :     0.020335
      dx2y2   :     0.020076
      dxy     :     0.013309
  1 C s       :     2.838147  s :     2.838147
      pz      :     0.938963  p :     2.968956
      px      :     0.986021
      py      :     1.043972
      dz2     :     0.026897  d :     0.142509
      dxz     :     0.034576
      dyz     :     0.033614
      dx2y2   :     0.026434
      dxy     :     0.020988
  2 N s       :     3.162078  s :     3.162078
      pz      :     1.371232  p :     3.835112
      px      :     1.048502
      py      :     1.415379
      dz2     :     0.013994  d :     0.071680
      dxz     :     0.019577
      dyz     :     0.006744
      dx2y2   :     0.026109
      dxy     :     0.005256
  3 N s       :     3.065912  s :     3.065912
      pz      :     1.652148  p :     3.901956
      px      :     1.079922
      py      :     1.169887
      dz2     :     0.004630  d :     0.068156
      dxz     :     0.009809
      dyz     :     0.003250
      dx2y2   :     0.021932
      dxy     :     0.028536
  4 C s       :     2.835905  s :     2.835905
      pz      :     0.715402  p :     2.702403
      px      :     0.997379
      py      :     0.989622
      dz2     :     0.015915  d :     0.276969
      dxz     :     0.017755
      dyz     :     0.059692
      dx2y2   :     0.078317
      dxy     :     0.105290
  5 O s       :     3.552973  s :     3.552973
      pz      :     1.480714  p :     4.728496
      px      :     1.774676
      py      :     1.473106
      dz2     :     0.004299  d :     0.030511
      dxz     :     0.000600
      dyz     :     0.006261
      dx2y2   :     0.011413
      dxy     :     0.007938
  6 C s       :     2.850494  s :     2.850494
      pz      :     1.030362  p :     3.121894
      px      :     1.032535
      py      :     1.058996
      dz2     :     0.012899  d :     0.110208
      dxz     :     0.012522
      dyz     :     0.016183
      dx2y2   :     0.037488
      dxy     :     0.031116
  7 C s       :     2.853330  s :     2.853330
      pz      :     0.949092  p :     3.024131
      px      :     1.054119
      py      :     1.020920
      dz2     :     0.008271  d :     0.097394
      dxz     :     0.018204
      dyz     :     0.010061
      dx2y2   :     0.029764
      dxy     :     0.031095
  8 C s       :     2.852611  s :     2.852611
      pz      :     0.985712  p :     3.075587
      px      :     1.054768
      py      :     1.035107
      dz2     :     0.008490  d :     0.097598
      dxz     :     0.015502
      dyz     :     0.012149
      dx2y2   :     0.029450
      dxy     :     0.032007
  9 C s       :     2.855226  s :     2.855226
      pz      :     0.965275  p :     3.050653
      px      :     1.044231
      py      :     1.041147
      dz2     :     0.011371  d :     0.098703
      dxz     :     0.011522
      dyz     :     0.015963
      dx2y2   :     0.031495
      dxy     :     0.028352
 10 C s       :     2.852295  s :     2.852295
      pz      :     0.990746  p :     3.078937
      px      :     1.059066
      py      :     1.029124
      dz2     :     0.008174  d :     0.097574
      dxz     :     0.018008
      dyz     :     0.010365
      dx2y2   :     0.030764
      dxy     :     0.030263
 11 C s       :     2.851807  s :     2.851807
      pz      :     0.978699  p :     3.060374
      px      :     1.059312
      py      :     1.022362
      dz2     :     0.009195  d :     0.098500
      dxz     :     0.017023
      dyz     :     0.012557
      dx2y2   :     0.028134
      dxy     :     0.031593
 12 C s       :     2.854664  s :     2.854664
      pz      :     1.009920  p :     3.071895
      px      :     1.029740
      py      :     1.032235
      dz2     :     0.016637  d :     0.110578
      dxz     :     0.019872
      dyz     :     0.018147
      dx2y2   :     0.028411
      dxy     :     0.027511
 13 C s       :     2.851798  s :     2.851798
      pz      :     1.002386  p :     3.065476
      px      :     1.043613
      py      :     1.019478
      dz2     :     0.012498  d :     0.097434
      dxz     :     0.021475
      dyz     :     0.014089
      dx2y2   :     0.024856
      dxy     :     0.024516
 14 C s       :     2.852371  s :     2.852371
      pz      :     0.999097  p :     3.073186
      px      :     1.043475
      py      :     1.030615
      dz2     :     0.010746  d :     0.098865
      dxz     :     0.019809
      dyz     :     0.016041
      dx2y2   :     0.025633
      dxy     :     0.026637
 15 C s       :     2.852356  s :     2.852356
      pz      :     1.010661  p :     3.076412
      px      :     1.032546
      py      :     1.033204
      dz2     :     0.015974  d :     0.098890
      dxz     :     0.016345
      dyz     :     0.018286
      dx2y2   :     0.023902
      dxy     :     0.024383
 16 C s       :     2.852691  s :     2.852691
      pz      :     1.003360  p :     3.073434
      px      :     1.052392
      py      :     1.017683
      dz2     :     0.012615  d :     0.098474
      dxz     :     0.021320
      dyz     :     0.014311
      dx2y2   :     0.025151
      dxy     :     0.025077
 17 C s       :     2.853460  s :     2.853460
      pz      :     1.003385  p :     3.070823
      px      :     1.043150
      py      :     1.024288
      dz2     :     0.010660  d :     0.098059
      dxz     :     0.019407
      dyz     :     0.015591
      dx2y2   :     0.025426
      dxy     :     0.026976
 18 H s       :     0.911088  s :     0.911088
      pz      :     0.032506  p :     0.065338
      px      :     0.021248
      py      :     0.011584
 19 H s       :     0.917302  s :     0.917302
      pz      :     0.022854  p :     0.065869
      px      :     0.016924
      py      :     0.026091
 20 H s       :     0.924191  s :     0.924191
      pz      :     0.014336  p :     0.065881
      px      :     0.035960
      py      :     0.015586
 21 H s       :     0.927276  s :     0.927276
      pz      :     0.024858  p :     0.065940
      px      :     0.017289
      py      :     0.023793
 22 H s       :     0.807784  s :     0.807784
      pz      :     0.038097  p :     0.125421
      px      :     0.016226
      py      :     0.071098
 23 H s       :     0.791857  s :     0.791857
      pz      :     0.044504  p :     0.130418
      px      :     0.020667
      py      :     0.065247
 24 H s       :     0.887895  s :     0.887895
      pz      :     0.018037  p :     0.070403
      px      :     0.014518
      py      :     0.037848
 25 H s       :     0.900836  s :     0.900836
      pz      :     0.017889  p :     0.068445
      px      :     0.025048
      py      :     0.025508
 26 H s       :     0.901472  s :     0.901472
      pz      :     0.012572  p :     0.068051
      px      :     0.043174
      py      :     0.012304
 27 H s       :     0.902229  s :     0.902229
      pz      :     0.019563  p :     0.068442
      px      :     0.013731
      py      :     0.035147
 28 H s       :     0.904102  s :     0.904102
      pz      :     0.019521  p :     0.069644
      px      :     0.024557
      py      :     0.025566
 29 H s       :     0.903965  s :     0.903965
      pz      :     0.020837  p :     0.068851
      px      :     0.013495
      py      :     0.034518
 30 H s       :     0.905588  s :     0.905588
      pz      :     0.025840  p :     0.068082
      px      :     0.023910
      py      :     0.018332
 31 H s       :     0.906156  s :     0.906156
      pz      :     0.013218  p :     0.068188
      px      :     0.038701
      py      :     0.016269
 32 H s       :     0.905180  s :     0.905180
      pz      :     0.019936  p :     0.068145
      px      :     0.013463
      py      :     0.034746
 33 H s       :     0.904665  s :     0.904665
      pz      :     0.025771  p :     0.068442
      px      :     0.023703
      py      :     0.018968


                      *****************************
                      * MAYER POPULATION ANALYSIS *
                      *****************************

  NA   - Mulliken gross atomic population
  ZA   - Total nuclear charge
  QA   - Mulliken gross atomic charge
  VA   - Mayer's total valence
  BVA  - Mayer's bonded valence
  FA   - Mayer's free valence

  ATOM       NA         ZA         QA         VA         BVA        FA
  0 C      5.9816     6.0000     0.0184     3.9025     3.9025     0.0000
  1 C      5.8341     6.0000     0.1659     3.8473     3.8473    -0.0000
  2 N      7.2400     7.0000    -0.2400     2.8181     2.8181     0.0000
  3 N      7.3517     7.0000    -0.3517     3.0255     3.0255    -0.0000
  4 C      5.4427     6.0000     0.5573     3.9987     3.9987    -0.0000
  5 O      8.4501     8.0000    -0.4501     2.0385     2.0385    -0.0000
  6 C      6.2137     6.0000    -0.2137     3.7405     3.7405    -0.0000
  7 C      5.9751     6.0000     0.0249     3.9406     3.9406     0.0000
  8 C      6.0434     6.0000    -0.0434     3.8640     3.8640     0.0000
  9 C      6.0187     6.0000    -0.0187     3.8628     3.8628    -0.0000
 10 C      6.0442     6.0000    -0.0442     3.9001     3.9001     0.0000
 11 C      6.0134     6.0000    -0.0134     3.8994     3.8994    -0.0000
 12 C      6.1878     6.0000    -0.1878     3.8336     3.8336    -0.0000
 13 C      5.9977     6.0000     0.0023     3.8773     3.8773    -0.0000
 14 C      6.0369     6.0000    -0.0369     3.8812     3.8812     0.0000
 15 C      6.0362     6.0000    -0.0362     3.8614     3.8614     0.0000
 16 C      6.0372     6.0000    -0.0372     3.8845     3.8845     0.0000
 17 C      6.0181     6.0000    -0.0181     3.9139     3.9139     0.0000
 18 H      0.9604     1.0000     0.0396     0.9858     0.9858     0.0000
 19 H      0.9696     1.0000     0.0304     0.9924     0.9924     0.0000
 20 H      0.9762     1.0000     0.0238     0.9920     0.9920     0.0000
 21 H      0.9727     1.0000     0.0273     0.9863     0.9863    -0.0000
 22 H      0.8371     1.0000     0.1629     1.0009     1.0009    -0.0000
 23 H      0.8206     1.0000     0.1794     0.9735     0.9735     0.0000
 24 H      0.9302     1.0000     0.0698     1.0030     1.0030     0.0000
 25 H      0.9500     1.0000     0.0500     0.9862     0.9862    -0.0000
 26 H      0.9500     1.0000     0.0500     0.9852     0.9852     0.0000
 27 H      0.9532     1.0000     0.0468     0.9862     0.9862    -0.0000
 28 H      0.9580     1.0000     0.0420     1.0008     1.0008    -0.0000
 29 H      0.9570     1.0000     0.0430     0.9975     0.9975    -0.0000
 30 H      0.9604     1.0000     0.0396     0.9857     0.9857     0.0000
 31 H      0.9601     1.0000     0.0399     0.9854     0.9854    -0.0000
 32 H      0.9600     1.0000     0.0400     0.9856     0.9856     0.0000
 33 H      0.9617     1.0000     0.0383     0.9932     0.9932    -0.0000

  Mayer bond orders larger than 0.100000
B(  0-C ,  1-C ) :   1.0276 B(  0-C , 18-H ) :   0.9839 B(  0-C , 19-H ) :   0.9770 
B(  0-C , 20-H ) :   0.9837 B(  1-C ,  2-N ) :   0.9132 B(  1-C , 12-C ) :   0.9966 
B(  1-C , 21-H ) :   0.9736 B(  2-N ,  3-N ) :   0.9760 B(  2-N , 22-H ) :   0.9460 
B(  3-N ,  4-C ) :   1.1156 B(  3-N , 23-H ) :   0.9358 B(  4-C ,  5-O ) :   1.9445 
B(  4-C ,  6-C ) :   0.9524 B(  6-C ,  7-C ) :   1.4228 B(  6-C , 11-C ) :   1.3902 
B(  7-C ,  8-C ) :   1.4224 B(  7-C , 24-H ) :   0.9988 B(  8-C ,  9-C ) :   1.4040 
B(  8-C , 25-H ) :   1.0007 B(  9-C , 10-C ) :   1.4162 B(  9-C , 26-H ) :   0.9989 
B( 10-C , 11-C ) :   1.4336 B( 10-C , 27-H ) :   0.9990 B( 11-C , 28-H ) :   0.9989 
B( 12-C , 13-C ) :   1.3930 B( 12-C , 17-C ) :   1.4369 B( 13-C , 14-C ) :   1.4330 
B( 13-C , 29-H ) :   1.0005 B( 14-C , 15-C ) :   1.4043 B( 14-C , 30-H ) :   1.0009 
B( 15-C , 16-C ) :   1.4211 B( 15-C , 31-H ) :   0.9999 B( 16-C , 17-C ) :   1.4181 
B( 16-C , 32-H ) :   0.9996 B( 17-C , 33-H ) :   1.0005 

-------
TIMINGS
-------

Total SCF time: 0 days 0 hours 0 min 13 sec 

Total time                  ....      13.107 sec
Sum of individual times     ....      12.842 sec  ( 98.0%)

Fock matrix formation       ....      12.103 sec  ( 92.3%)
Diagonalization             ....       0.194 sec  (  1.5%)
Density matrix formation    ....       0.028 sec  (  0.2%)
Population analysis         ....       0.027 sec  (  0.2%)
Initial guess               ....       0.092 sec  (  0.7%)
Orbital Transformation      ....       0.000 sec  (  0.0%)
Orbital Orthonormalization  ....       0.000 sec  (  0.0%)
DIIS solution               ....       0.114 sec  (  0.9%)
SOSCF solution              ....       0.154 sec  (  1.2%)

Maximum memory used throughout the entire SCF-calculation: 235.4 MB

-------------------------   --------------------
FINAL SINGLE POINT ENERGY      -760.527264114109
-------------------------   --------------------


                            ***************************************
                            *     ORCA property calculations      *
                            ***************************************

                                    ---------------------
                                    Active property flags
                                    ---------------------
   (+) Dipole Moment


------------------------------------------------------------------------------
                       ORCA ELECTRIC PROPERTIES CALCULATION
------------------------------------------------------------------------------

Dipole Moment Calculation                       ... on
Quadrupole Moment Calculation                   ... off
Polarizability Calculation                      ... off
GBWName                                         ... ./ZINC000000000068/ZINC000000000068.gbw
Electron density                                ... ./ZINC000000000068/ZINC000000000068.scfp
The origin for moment calculation is the CENTER OF MASS  = ( 0.273245, -0.298010 -0.658662)

-------------
DIPOLE MOMENT
-------------
                                X             Y             Z
Electronic contribution:      5.33247      -4.14512      -3.34875
Nuclear contribution   :     -4.65457       5.18342       3.55303
                        -----------------------------------------
Total Dipole Moment    :      0.67791       1.03830       0.20428
                        -----------------------------------------
Magnitude (a.u.)       :      1.25672
Magnitude (Debye)      :      3.19433



--------------------
Rotational spectrum 
--------------------
 
Rotational constants in cm-1:     0.046689     0.005178     0.004910 
Rotational constants in MHz :  1399.711020   155.234147   147.201521 

 Dipole components along the rotational axes: 
x,y,z [a.u.] :     0.751905     1.006937     0.007983 
x,y,z [Debye]:     1.911190     2.559431     0.020292 

 

Timings for individual modules:

Sum of individual times         ...       13.706 sec (=   0.228 min)
GTO integral calculation        ...        0.383 sec (=   0.006 min)   2.8 %
SCF iterations                  ...       13.323 sec (=   0.222 min)  97.2 %
                             ****ORCA TERMINATED NORMALLY****
TOTAL RUN TIME: 0 days 0 hours 0 minutes 14 seconds 51 msec
