
                                 *****************
                                 * O   R   C   A *
                                 *****************

                                            #,                                       
                                            ###                                      
                                            ####                                     
                                            #####                                    
                                            ######                                   
                                           ########,                                 
                                     ,,################,,,,,                         
                               ,,#################################,,                 
                          ,,##########################################,,             
                       ,#########################################, ''#####,          
                    ,#############################################,,   '####,        
                  ,##################################################,,,,####,       
                ,###########''''           ''''###############################       
              ,#####''   ,,,,##########,,,,          '''####'''          '####       
            ,##' ,,,,###########################,,,                        '##       
           ' ,,###''''                  '''############,,,                           
         ,,##''                                '''############,,,,        ,,,,,,###''
      ,#''                                            '''#######################'''  
     '                                                          ''''####''''         
             ,#######,   #######,   ,#######,      ##                                
            ,#'     '#,  ##    ##  ,#'     '#,    #''#        ######   ,####,        
            ##       ##  ##   ,#'  ##            #'  '#       #        #'  '#        
            ##       ##  #######   ##           ,######,      #####,   #    #        
            '#,     ,#'  ##    ##  '#,     ,#' ,#      #,         ##   #,  ,#        
             '#######'   ##     ##  '#######'  #'      '#     #####' # '####'        



                  #######################################################
                  #                        -***-                        #
                  #          Department of theory and spectroscopy      #
                  #    Directorship and core code : Frank Neese         #
                  #        Max Planck Institute fuer Kohlenforschung    #
                  #                Kaiser Wilhelm Platz 1               #
                  #                 D-45470 Muelheim/Ruhr               #
                  #                      Germany                        #
                  #                                                     #
                  #                  All rights reserved                #
                  #                        -***-                        #
                  #######################################################


                         Program Version 5.0.3 -  RELEASE  -


 With contributions from (in alphabetic order):
   Daniel Aravena         : Magnetic Suceptibility
   Michael Atanasov       : Ab Initio Ligand Field Theory (pilot matlab implementation)
   Alexander A. Auer      : GIAO ZORA, VPT2 properties, NMR spectrum
   Ute Becker             : Parallelization
   Giovanni Bistoni       : ED, misc. LED, open-shell LED, HFLD
   Martin Brehm           : Molecular dynamics
   Dmytro Bykov           : SCF Hessian
   Vijay G. Chilkuri      : MRCI spin determinant printing, contributions to CSF-ICE
   Dipayan Datta          : RHF DLPNO-CCSD density
   Achintya Kumar Dutta   : EOM-CC, STEOM-CC
   Dmitry Ganyushin       : Spin-Orbit,Spin-Spin,Magnetic field MRCI
   Miquel Garcia          : C-PCM and meta-GGA Hessian, CC/C-PCM, Gaussian charge scheme
   Yang Guo               : DLPNO-NEVPT2, F12-NEVPT2, CIM, IAO-localization
   Andreas Hansen         : Spin unrestricted coupled pair/coupled cluster methods
   Benjamin Helmich-Paris : MC-RPA, TRAH-SCF, COSX integrals
   Lee Huntington         : MR-EOM, pCC
   Robert Izsak           : Overlap fitted RIJCOSX, COSX-SCS-MP3, EOM
   Marcus Kettner         : VPT2
   Christian Kollmar      : KDIIS, OOCD, Brueckner-CCSD(T), CCSD density, CASPT2, CASPT2-K
   Simone Kossmann        : Meta GGA functionals, TD-DFT gradient, OOMP2, MP2 Hessian
   Martin Krupicka        : Initial AUTO-CI
   Lucas Lang             : DCDCAS
   Marvin Lechner         : AUTO-CI (C++ implementation), FIC-MRCC
   Dagmar Lenk            : GEPOL surface, SMD
   Dimitrios Liakos       : Extrapolation schemes; Compound Job, initial MDCI parallelization
   Dimitrios Manganas     : Further ROCIS development; embedding schemes
   Dimitrios Pantazis     : SARC Basis sets
   Anastasios Papadopoulos: AUTO-CI, single reference methods and gradients
   Taras Petrenko         : DFT Hessian,TD-DFT gradient, ASA, ECA, R-Raman, ABS, FL, XAS/XES, NRVS
   Peter Pinski           : DLPNO-MP2, DLPNO-MP2 Gradient
   Christoph Reimann      : Effective Core Potentials
   Marius Retegan         : Local ZFS, SOC
   Christoph Riplinger    : Optimizer, TS searches, QM/MM, DLPNO-CCSD(T), (RO)-DLPNO pert. Triples
   Tobias Risthaus        : Range-separated hybrids, TD-DFT gradient, RPA, STAB
   Michael Roemelt        : Original ROCIS implementation
   Masaaki Saitow         : Open-shell DLPNO-CCSD energy and density
   Barbara Sandhoefer     : DKH picture change effects
   Avijit Sen             : IP-ROCIS
   Kantharuban Sivalingam : CASSCF convergence, NEVPT2, FIC-MRCI
   Bernardo de Souza      : ESD, SOC TD-DFT
   Georgi Stoychev        : AutoAux, RI-MP2 NMR, DLPNO-MP2 response
   Willem Van den Heuvel  : Paramagnetic NMR
   Boris Wezisla          : Elementary symmetry handling
   Frank Wennmohs         : Technical directorship


 We gratefully acknowledge several colleagues who have allowed us to
 interface, adapt or use parts of their codes:
   Stefan Grimme, W. Hujo, H. Kruse, P. Pracht,  : VdW corrections, initial TS optimization,
                  C. Bannwarth, S. Ehlert          DFT functionals, gCP, sTDA/sTD-DF
   Ed Valeev, F. Pavosevic, A. Kumar             : LibInt (2-el integral package), F12 methods
   Garnet Chan, S. Sharma, J. Yang, R. Olivares  : DMRG
   Ulf Ekstrom                                   : XCFun DFT Library
   Mihaly Kallay                                 : mrcc  (arbitrary order and MRCC methods)
   Jiri Pittner, Ondrej Demel                    : Mk-CCSD
   Frank Weinhold                                : gennbo (NPA and NBO analysis)
   Christopher J. Cramer and Donald G. Truhlar   : smd solvation model
   Lars Goerigk                                  : TD-DFT with DH, B97 family of functionals
   V. Asgeirsson, H. Jonsson                     : NEB implementation
   FAccTs GmbH                                   : IRC, NEB, NEB-TS, DLPNO-Multilevel, CI-OPT
                                                   MM, QMMM, 2- and 3-layer-ONIOM, Crystal-QMMM,
                                                   LR-CPCM, SF, NACMEs, symmetry and pop. for TD-DFT,
                                                   nearIR, NL-DFT gradient (VV10), updates on ESD,
                                                   ML-optimized integration grids
   S Lehtola, MJT Oliveira, MAL Marques          : LibXC Library
   Liviu Ungur et al                             : ANISO software


 Your calculation uses the libint2 library for the computation of 2-el integrals
 For citations please refer to: http://libint.valeyev.net

 Your ORCA version has been built with support for libXC version: 5.1.0
 For citations please refer to: https://tddft.org/programs/libxc/

 This ORCA versions uses:
   CBLAS   interface :  Fast vector & matrix operations
   LAPACKE interface :  Fast linear algebra routines
   SCALAPACK package :  Parallel linear algebra routines
   Shared memory     :  Shared parallel matrices
   BLAS/LAPACK       :  OpenBLAS 0.3.15  USE64BITINT DYNAMIC_ARCH NO_AFFINITY Zen SINGLE_THREADED
        Core in use  :  Zen
   Copyright (c) 2011-2014, The OpenBLAS Project


================================================================================

----- Orbital basis set information -----
Your calculation utilizes the basis: def2-SVP
   F. Weigend and R. Ahlrichs, Phys. Chem. Chem. Phys. 7, 3297 (2005).

================================================================================
                                        WARNINGS
                       Please study these warnings very carefully!
================================================================================


INFO   : the flag for use of the SHARK integral package has been found!

================================================================================
                                       INPUT FILE
================================================================================
NAME = ./ZINC000000000148/ZINC000000000148.inp
|  1> !RHF def2-SVP TightSCF PAL16 
|  2> *xyz 0 1
|  3> C -1.1036271048403326 0.08310524971667553 3.3217911457225062
|  4> C -0.6928367542187787 0.4050066601397822 1.8804893824025588
|  5> C -1.8366883268858019 0.020046002126105106 0.9200422559372065
|  6> C -1.6702962991599344 0.6294687330618406 -0.48166648546555263
|  7> N -2.7587407918564333 0.3789995889966984 -1.4423374667079347
|  8> C -2.8957801598747848 -1.0355163694426912 -1.7772305471448064
|  9> C -4.035286174816814 0.9507988954150884 -1.029037178524735
| 10> N 0.5227867998361129 -0.36674492397404795 1.605945800572844
| 11> C 1.479211747582775 0.15271239133234274 0.6977634955702324
| 12> C 1.9484310379880942 1.4686028411603798 0.8077305882334731
| 13> C 2.9046007581788227 1.9462453049978394 -0.07783346715139762
| 14> O 3.3196724974147327 3.2368220488230763 0.06999207661810647
| 15> C 3.4209365715827444 1.1290629951153317 -1.0742046946092032
| 16> C 2.9769576787773007 -0.19873351004326012 -1.1834144957262664
| 17> C 3.4789070127302852 -1.0548358771538848 -2.173425940822859
| 18> C 3.0164385414411163 -2.361602450743369 -2.2600734814418293
| 19> C 2.0613488007074596 -2.771946728135079 -1.3515363538434177
| 20> N 1.551074675936011 -1.9788548812177442 -0.385147003759055
| 21> C 2.003738529337879 -0.7053911792666596 -0.2923894080763437
| 22> H -1.3189561007583386 -0.98417727638114 3.44706890266937
| 23> H -1.996436610382343 0.6478357351666776 3.610061421005911
| 24> H -0.30091611402977175 0.34348174958642813 4.020788201659713
| 25> H -0.5204092957994125 1.4857323724316809 1.8302121121303994
| 26> H -2.779403175267151 0.3780549769322291 1.3504311729012382
| 27> H -1.910895068137787 -1.0720006253090524 0.8528921716578448
| 28> H -1.5414213133305208 1.7154505657049668 -0.386565182661896
| 29> H -0.7425402419967204 0.2686315626710307 -0.9368815044519727
| 30> H -3.2576890930973503 -1.6351457256054993 -0.9352568673703416
| 31> H -3.5994896143448427 -1.162189491992044 -2.607701887173038
| 32> H -1.9390748529785329 -1.450708875876595 -2.113252442267873
| 33> H -4.7608533717115975 0.8885227467846905 -1.8479804676308549
| 34> H -3.9259407102087844 2.0142594307616912 -0.7896226136210689
| 35> H -4.466239882871326 0.4416659964810887 -0.1605087314793739
| 36> H 0.33063717295741185 -1.334566486930484 1.3211214123936195
| 37> H 1.5915142202196744 2.120311921126553 1.5986285063556993
| 38> H 3.9936504918848965 3.4320758520977255 -0.6013734399266958
| 39> H 4.168335197014923 1.508854711166559 -1.764167348811199
| 40> H 4.229060558049786 -0.7091469043106007 -2.880007888455339
| 41> H 3.390915677974398 -3.0409791726857485 -3.0170908322562253
| 42> H 1.665303086956518 -3.783207852728699 -1.3750500183222465
| 43> *
| 44> 
| 45>                          ****END OF INPUT****
================================================================================

                       ****************************
                       * Single Point Calculation *
                       ****************************

---------------------------------
CARTESIAN COORDINATES (ANGSTROEM)
---------------------------------
  C     -1.103627    0.083105    3.321791
  C     -0.692837    0.405007    1.880489
  C     -1.836688    0.020046    0.920042
  C     -1.670296    0.629469   -0.481666
  N     -2.758741    0.379000   -1.442337
  C     -2.895780   -1.035516   -1.777231
  C     -4.035286    0.950799   -1.029037
  N      0.522787   -0.366745    1.605946
  C      1.479212    0.152712    0.697763
  C      1.948431    1.468603    0.807731
  C      2.904601    1.946245   -0.077833
  O      3.319672    3.236822    0.069992
  C      3.420937    1.129063   -1.074205
  C      2.976958   -0.198734   -1.183414
  C      3.478907   -1.054836   -2.173426
  C      3.016439   -2.361602   -2.260073
  C      2.061349   -2.771947   -1.351536
  N      1.551075   -1.978855   -0.385147
  C      2.003739   -0.705391   -0.292389
  H     -1.318956   -0.984177    3.447069
  H     -1.996437    0.647836    3.610061
  H     -0.300916    0.343482    4.020788
  H     -0.520409    1.485732    1.830212
  H     -2.779403    0.378055    1.350431
  H     -1.910895   -1.072001    0.852892
  H     -1.541421    1.715451   -0.386565
  H     -0.742540    0.268632   -0.936882
  H     -3.257689   -1.635146   -0.935257
  H     -3.599490   -1.162189   -2.607702
  H     -1.939075   -1.450709   -2.113252
  H     -4.760853    0.888523   -1.847980
  H     -3.925941    2.014259   -0.789623
  H     -4.466240    0.441666   -0.160509
  H      0.330637   -1.334566    1.321121
  H      1.591514    2.120312    1.598629
  H      3.993650    3.432076   -0.601373
  H      4.168335    1.508855   -1.764167
  H      4.229061   -0.709147   -2.880008
  H      3.390916   -3.040979   -3.017091
  H      1.665303   -3.783208   -1.375050

----------------------------
CARTESIAN COORDINATES (A.U.)
----------------------------
  NO LB      ZA    FRAG     MASS         X           Y           Z
   0 C     6.0000    0    12.011   -2.085553    0.157046    6.277276
   1 C     6.0000    0    12.011   -1.309272    0.765352    3.553610
   2 C     6.0000    0    12.011   -3.470838    0.037881    1.738628
   3 C     6.0000    0    12.011   -3.156403    1.189524   -0.910218
   4 N     7.0000    0    14.007   -5.213265    0.716205   -2.725623
   5 C     6.0000    0    12.011   -5.472231   -1.956842   -3.358479
   6 C     6.0000    0    12.011   -7.625586    1.796750   -1.944598
   7 N     7.0000    0    14.007    0.987924   -0.693047    3.034798
   8 C     6.0000    0    12.011    2.795305    0.288585    1.318582
   9 C     6.0000    0    12.011    3.682001    2.775257    1.526390
  10 C     6.0000    0    12.011    5.488900    3.677871   -0.147084
  11 O     8.0000    0    15.999    6.273272    6.116707    0.132266
  12 C     6.0000    0    12.011    6.464633    2.133620   -2.029953
  13 C     6.0000    0    12.011    5.625635   -0.375552   -2.236329
  14 C     6.0000    0    12.011    6.574181   -1.993351   -4.107180
  15 C     6.0000    0    12.011    5.700243   -4.462782   -4.270920
  16 C     6.0000    0    12.011    3.895385   -5.238220   -2.554034
  17 N     7.0000    0    14.007    2.931106   -3.739494   -0.727822
  18 C     6.0000    0    12.011    3.786517   -1.332996   -0.552536
  19 H     1.0000    0     1.008   -2.492466   -1.859826    6.514016
  20 H     1.0000    0     1.008   -3.772718    1.224232    6.822027
  21 H     1.0000    0     1.008   -0.568649    0.649086    7.598189
  22 H     1.0000    0     1.008   -0.983431    2.807627    3.458600
  23 H     1.0000    0     1.008   -5.252311    0.714420    2.551945
  24 H     1.0000    0     1.008   -3.611068   -2.025788    1.611733
  25 H     1.0000    0     1.008   -2.912864    3.241732   -0.730502
  26 H     1.0000    0     1.008   -1.403198    0.507640   -1.770449
  27 H     1.0000    0     1.008   -6.156140   -3.089978   -1.767379
  28 H     1.0000    0     1.008   -6.802050   -2.196220   -4.927842
  29 H     1.0000    0     1.008   -3.664320   -2.741442   -3.993468
  30 H     1.0000    0     1.008   -8.996709    1.679065   -3.492177
  31 H     1.0000    0     1.008   -7.418953    3.806399   -1.492170
  32 H     1.0000    0     1.008   -8.439970    0.834628   -0.303318
  33 H     1.0000    0     1.008    0.624814   -2.521965    2.496558
  34 H     1.0000    0     1.008    3.007526    4.006809    3.020970
  35 H     1.0000    0     1.008    7.546906    6.485683   -1.136431
  36 H     1.0000    0     1.008    7.877012    2.851322   -3.333793
  37 H     1.0000    0     1.008    7.991766   -1.340093   -5.442426
  38 H     1.0000    0     1.008    6.407902   -5.746618   -5.701475
  39 H     1.0000    0     1.008    3.146967   -7.149227   -2.598468

--------------------------------
INTERNAL COORDINATES (ANGSTROEM)
--------------------------------
 C      0   0   0     0.000000000000     0.00000000     0.00000000
 C      1   0   0     1.532879644051     0.00000000     0.00000000
 C      2   1   0     1.542416873367   109.53236563     0.00000000
 C      3   2   1     1.537488135758   112.86193568   165.18983788
 N      4   3   2     1.473205667927   116.56153971   183.47758138
 C      5   4   3     1.460064574048   112.55859172   295.57595303
 C      5   4   3     1.458540259914   113.27865444    62.89282216
 N      2   1   3     1.465849689115   106.72523539   239.12374068
 C      8   2   1     1.417525901780   119.11735178   210.60206852
 C      9   8   2     1.401366183375   121.31489325    49.54202277
 C     10   9   8     1.388029737887   120.24610105   178.73709174
 O     11  10   9     1.363717445736   117.78597747   179.61525934
 C     11  10   9     1.388216561886   120.76836778   359.31536991
 C     13  11  10     1.404310363498   119.65713778   359.63118770
 C     14  13  11     1.401779960711   121.27624966   180.23515561
 C     15  14  13     1.388892998428   119.96300390   180.26490051
 C     16  15  14     1.380586306997   117.96599804     0.09462465
 N     17  16  15     1.350289871107   123.90643146     0.00000000
 C     18  17  16     1.354702305276   118.35015294   359.67862525
 H      1   2   3     1.095971296788   111.38490049    59.94701835
 H      1   2   3     1.095047526820   110.96002789   299.36703550
 H      1   2   3     1.095781794274   110.70626966   179.63073201
 H      2   1   3     1.095548765474   107.00680013   118.65227840
 H      3   2   1     1.096410658123   108.16234755    44.82360771
 H      3   2   1     1.096622820645   109.68528396   288.55012875
 H      4   3   2     1.097729274730   109.01742137   306.20121832
 H      4   3   2     1.094602886279   109.88948965    61.04387301
 H      6   5   4     1.095195470294   112.65046873    68.53789571
 H      6   5   4     1.095872128898   110.24746612   189.11041921
 H      6   5   4     1.095710078280   110.82370770   306.80142519
 H      7   5   4     1.095898803115   110.20807964   170.25220279
 H      7   5   4     1.095547385903   110.80100698    52.59459784
 H      7   5   4     1.095116007823   112.76132202   290.76303854
 H      8   2   1     1.026998047191   113.13719931    83.45712946
 H     10   9   8     1.085188396826   120.72944853     0.34104218
 H     12  11  10     0.971134409610   109.06073500   179.13774677
 H     13  11  10     1.085769274327   120.41201069   179.96745818
 H     15  14  13     1.086963318710   120.79680108     0.20345447
 H     16  15  14     1.083910109528   121.21515344   180.03731675
 H     17  16  15     1.086302978875   120.97507704   179.97891644

---------------------------
INTERNAL COORDINATES (A.U.)
---------------------------
 C      0   0   0     0.000000000000     0.00000000     0.00000000
 C      1   0   0     2.896722723519     0.00000000     0.00000000
 C      2   1   0     2.914745475002   109.53236563     0.00000000
 C      3   2   1     2.905431510736   112.86193568   165.18983788
 N      4   3   2     2.783955251322   116.56153971   183.47758138
 C      5   4   3     2.759122182792   112.55859172   295.57595303
 C      5   4   3     2.756241646536   113.27865444    62.89282216
 N      2   1   3     2.770054465921   106.72523539   239.12374068
 C      8   2   1     2.678735742104   119.11735178   210.60206852
 C      9   8   2     2.648198299916   121.31489325    49.54202277
 C     10   9   8     2.622996070346   120.24610105   178.73709174
 O     11  10   9     2.577052496492   117.78597747   179.61525934
 C     11  10   9     2.623349116538   120.76836778   359.31536991
 C     13  11  10     2.653761994039   119.65713778   359.63118770
 C     14  13  11     2.648980225762   121.27624966   180.23515561
 C     15  14  13     2.624627396350   119.96300390   180.26490051
 C     16  15  14     2.608930024466   117.96599804     0.09462465
 N     17  16  15     2.551678057800   123.90643146     0.00000000
 C     18  17  16     2.560016349964   118.35015294   359.67862525
 H      1   2   3     2.071085601567   111.38490049    59.94701835
 H      1   2   3     2.069339929318   110.96002789   299.36703550
 H      1   2   3     2.070727493714   110.70626966   179.63073201
 H      2   1   3     2.070287133102   107.00680013   118.65227840
 H      3   2   1     2.071915874165   108.16234755    44.82360771
 H      3   2   1     2.072316803226   109.68528396   288.55012875
 H      4   3   2     2.074407698427   109.01742137   306.20121832
 H      4   3   2     2.068499680466   109.88948965    61.04387301
 H      6   5   4     2.069619501966   112.65046873    68.53789571
 H      6   5   4     2.070898201414   110.24746612   189.11041921
 H      6   5   4     2.070591970127   110.82370770   306.80142519
 H      7   5   4     2.070948608380   110.20807964   170.25220279
 H      7   5   4     2.070284526089   110.80100698    52.59459784
 H      7   5   4     2.069469339658   112.76132202   290.76303854
 H      8   2   1     1.940745049263   113.13719931    83.45712946
 H     10   9   8     2.050708873711   120.72944853     0.34104218
 H     12  11  10     1.835178073390   109.06073500   179.13774677
 H     13  11  10     2.051806573104   120.41201069   179.96745818
 H     15  14  13     2.054062989980   120.79680108     0.20345447
 H     16  15  14     2.048293260797   121.21515344   180.03731675
 H     17  16  15     2.052815128536   120.97507704   179.97891644

---------------------
BASIS SET INFORMATION
---------------------
There are 4 groups of distinct atoms

 Group   1 Type C   : 7s4p1d contracted to 3s2p1d pattern {511/31/1}
 Group   2 Type N   : 7s4p1d contracted to 3s2p1d pattern {511/31/1}
 Group   3 Type O   : 7s4p1d contracted to 3s2p1d pattern {511/31/1}
 Group   4 Type H   : 4s1p contracted to 2s1p pattern {31/1}

Atom   0C    basis set group =>   1
Atom   1C    basis set group =>   1
Atom   2C    basis set group =>   1
Atom   3C    basis set group =>   1
Atom   4N    basis set group =>   2
Atom   5C    basis set group =>   1
Atom   6C    basis set group =>   1
Atom   7N    basis set group =>   2
Atom   8C    basis set group =>   1
Atom   9C    basis set group =>   1
Atom  10C    basis set group =>   1
Atom  11O    basis set group =>   3
Atom  12C    basis set group =>   1
Atom  13C    basis set group =>   1
Atom  14C    basis set group =>   1
Atom  15C    basis set group =>   1
Atom  16C    basis set group =>   1
Atom  17N    basis set group =>   2
Atom  18C    basis set group =>   1
Atom  19H    basis set group =>   4
Atom  20H    basis set group =>   4
Atom  21H    basis set group =>   4
Atom  22H    basis set group =>   4
Atom  23H    basis set group =>   4
Atom  24H    basis set group =>   4
Atom  25H    basis set group =>   4
Atom  26H    basis set group =>   4
Atom  27H    basis set group =>   4
Atom  28H    basis set group =>   4
Atom  29H    basis set group =>   4
Atom  30H    basis set group =>   4
Atom  31H    basis set group =>   4
Atom  32H    basis set group =>   4
Atom  33H    basis set group =>   4
Atom  34H    basis set group =>   4
Atom  35H    basis set group =>   4
Atom  36H    basis set group =>   4
Atom  37H    basis set group =>   4
Atom  38H    basis set group =>   4
Atom  39H    basis set group =>   4


           ************************************************************
           *        Program running with 16 parallel MPI-processes    *
           *              working on a common directory               *
           ************************************************************
------------------------------------------------------------------------------
                           ORCA GTO INTEGRAL CALCULATION
------------------------------------------------------------------------------
------------------------------------------------------------------------------
                   ___                                                        
                  /   \      - P O W E R E D   B Y -                         
                 /     \                                                     
                 |  |  |   _    _      __       _____    __    __             
                 |  |  |  | |  | |    /  \     |  _  \  |  |  /  |          
                  \  \/   | |  | |   /    \    | | | |  |  | /  /          
                 / \  \   | |__| |  /  /\  \   | |_| |  |  |/  /          
                |  |  |   |  __  | /  /__\  \  |    /   |      \           
                |  |  |   | |  | | |   __   |  |    \   |  |\   \          
                \     /   | |  | | |  |  |  |  | |\  \  |  | \   \       
                 \___/    |_|  |_| |__|  |__|  |_| \__\ |__|  \__/        
                                                                              
                      - O R C A' S   B I G   F R I E N D -                    
                                      &                                       
                       - I N T E G R A L  F E E D E R -                       
                                                                              
 v1 FN, 2020, v2 2021                                                         
------------------------------------------------------------------------------


Reading SHARK input file ./ZINC000000000148/ZINC000000000148.SHARKINP.tmp ... ok
----------------------
SHARK INTEGRAL PACKAGE
----------------------

Number of atoms                             ...     40
Number of basis functions                   ...    371
Number of shells                            ...    177
Maximum angular momentum                    ...      2
Integral batch strategy                     ... SHARK/LIBINT Hybrid
RI-J (if used) integral strategy            ... SPLIT-RIJ (Revised 2003 algorithm where possible)
Printlevel                                  ...      1
Contraction scheme used                     ... SEGMENTED contraction
Coulomb Range Separation                    ... NOT USED
Exchange Range Separation                   ... NOT USED
Finite Nucleus Model                        ... NOT USED
Auxiliary Coulomb fitting basis             ... NOT available
Auxiliary J/K fitting basis                 ... NOT available
Auxiliary Correlation fitting basis         ... NOT available
Auxiliary 'external' fitting basis          ... NOT available
Integral threshold                          ...     2.500000e-11
Primitive cut-off                           ...     2.500000e-12
Primitive pair pre-selection threshold      ...     2.500000e-12

Calculating pre-screening integrals         ... done (  0.0 sec) Dimension = 177
Organizing shell pair data                  ... done (  0.0 sec)
Shell pair information
Total number of shell pairs                 ...     15753
Shell pairs after pre-screening             ...     12279
Total number of primitive shell pairs       ...     55921
Primitive shell pairs kept                  ...     28509
          la=0 lb=0:   4020 shell pairs
          la=1 lb=0:   4621 shell pairs
          la=1 lb=1:   1373 shell pairs
          la=2 lb=0:   1374 shell pairs
          la=2 lb=1:    775 shell pairs
          la=2 lb=2:    116 shell pairs

Calculating one electron integrals          ... done (  0.0 sec)
Calculating Nuclear repulsion               ... done (  0.0 sec) ENN=   1446.938905057236 Eh

SHARK setup successfully completed in   0.2 seconds

Maximum memory used throughout the entire GTOINT-calculation: 18.3 MB


           ************************************************************
           *        Program running with 16 parallel MPI-processes    *
           *              working on a common directory               *
           ************************************************************
-------------------------------------------------------------------------------
                                 ORCA SCF
-------------------------------------------------------------------------------

------------
SCF SETTINGS
------------
Hamiltonian:
 Ab initio Hamiltonian  Method          .... Hartree-Fock(GTOs)


General Settings:
 Integral files         IntName         .... ./ZINC000000000148/ZINC000000000148
 Hartree-Fock type      HFTyp           .... RHF
 Total Charge           Charge          ....    0
 Multiplicity           Mult            ....    1
 Number of Electrons    NEL             ....  140
 Basis Dimension        Dim             ....  371
 Nuclear Repulsion      ENuc            ....   1446.9389050572 Eh

Convergence Acceleration:
 DIIS                   CNVDIIS         .... on
   Start iteration      DIISMaxIt       ....    12
   Startup error        DIISStart       ....  0.200000
   # of expansion vecs  DIISMaxEq       ....     5
   Bias factor          DIISBfac        ....   1.050
   Max. coefficient     DIISMaxC        ....  10.000
 Trust-Rad. Augm. Hess. CNVTRAH         .... auto
   Auto Start mean grad. ratio tolernc. ....  1.125000
   Auto Start start iteration           ....    20
   Auto Start num. interpolation iter.  ....    10
   Max. Number of Micro iterations      ....    16
   Max. Number of Macro iterations      .... Maxiter - #DIIS iter
   Number of Davidson start vectors     ....     2
   Converg. threshold I  (grad. norm)   ....   1.000e-05
   Converg. threshold II (energy diff.) ....   1.000e-08
   Grad. Scal. Fac. for Micro threshold ....   0.100
   Minimum threshold for Micro iter.    ....   0.010
   NR start threshold (gradient norm)   ....   0.001
   Initial trust radius                 ....   0.400
   Minimum AH scaling param. (alpha)    ....   1.000
   Maximum AH scaling param. (alpha)    .... 1000.000
   Orbital update algorithm             .... Taylor
   White noise on init. David. guess    .... on
   Maximum white noise                  ....   0.010
   Quad. conv. algorithm                .... NR
 SOSCF                  CNVSOSCF        .... on
   Start iteration      SOSCFMaxIt      ....   150
   Startup grad/error   SOSCFStart      ....  0.003300
 Level Shifting         CNVShift        .... on
   Level shift para.    LevelShift      ....    0.2500
   Turn off err/grad.   ShiftErr        ....    0.0010
 Zerner damping         CNVZerner       .... off
 Static damping         CNVDamp         .... on
   Fraction old density DampFac         ....    0.7000
   Max. Damping (<1)    DampMax         ....    0.9800
   Min. Damping (>=0)   DampMin         ....    0.0000
   Turn off err/grad.   DampErr         ....    0.1000
 Fernandez-Rico         CNVRico         .... off

SCF Procedure:
 Maximum # iterations   MaxIter         ....   125
 SCF integral mode      SCFMode         .... Direct
   Integral package                     .... SHARK and LIBINT hybrid scheme
 Reset frequency        DirectResetFreq ....    20
 Integral Threshold     Thresh          ....  2.500e-11 Eh
 Primitive CutOff       TCut            ....  2.500e-12 Eh

Convergence Tolerance:
 Convergence Check Mode ConvCheckMode   .... Total+1el-Energy
 Convergence forced     ConvForced      .... 0
 Energy Change          TolE            ....  1.000e-08 Eh
 1-El. energy change                    ....  1.000e-05 Eh
 Orbital Gradient       TolG            ....  1.000e-05
 Orbital Rotation angle TolX            ....  1.000e-05
 DIIS Error             TolErr          ....  5.000e-07


Diagonalization of the overlap matrix:
Smallest eigenvalue                        ... 1.611e-04
Time for diagonalization                   ...    0.017 sec
Threshold for overlap eigenvalues          ... 1.000e-08
Number of eigenvalues below threshold      ... 0
Time for construction of square roots      ...    0.009 sec
Total time needed                          ...    0.027 sec

Time for model grid setup =    0.154 sec

------------------------------
INITIAL GUESS: MODEL POTENTIAL
------------------------------
Loading Hartree-Fock densities                     ... done
Calculating cut-offs                               ... done
Initializing the effective Hamiltonian             ... done
Setting up the integral package (SHARK)            ... done
Starting the Coulomb interaction                   ... done (   0.1 sec)
Reading the grid                                   ... done
Mapping shells                                     ... done
Starting the XC term evaluation                    ... done (   0.0 sec)
Transforming the Hamiltonian                       ... done (   0.0 sec)
Diagonalizing the Hamiltonian                      ... done (   0.0 sec)
Back transforming the eigenvectors                 ... done (   0.0 sec)
Now organizing SCF variables                       ... done
                      ------------------
                      INITIAL GUESS DONE (   0.3 sec)
                      ------------------
--------------
SCF ITERATIONS
--------------
ITER       Energy         Delta-E        Max-DP      RMS-DP      [F,P]     Damp
               ***  Starting incremental Fock matrix formation  ***
  0   -817.1561232788   0.000000000000 0.09986808  0.00201705  0.1945989 0.7000
  1   -817.3842950008  -0.228171722034 0.07868108  0.00157265  0.1285103 0.7000
                               ***Turning on DIIS***
  2   -817.5275258039  -0.143230803133 0.19078268  0.00365990  0.0775532 0.0000
  3   -816.6153642207   0.912161583267 0.03407353  0.00066963  0.0283493 0.0000
  4   -817.7919818322  -1.176617611507 0.00916726  0.00025049  0.0053738 0.0000
                      *** Initiating the SOSCF procedure ***
                           *** Shutting down DIIS ***
                      *** Re-Reading the Fockian *** 
                      *** Removing any level shift *** 
ITER      Energy       Delta-E        Grad      Rot      Max-DP    RMS-DP
  5   -817.81649783  -0.0245159959  0.001835  0.001835  0.004038  0.000106
               *** Restarting incremental Fock matrix formation ***
  6   -817.83002551  -0.0135276821  0.001220  0.002743  0.001672  0.000048
  7   -817.83008795  -0.0000624369  0.000548  0.002620  0.001393  0.000048
  8   -817.83010749  -0.0000195452  0.000240  0.000540  0.000492  0.000012
  9   -817.83010989  -0.0000023972  0.000099  0.000202  0.000166  0.000005
 10   -817.83011016  -0.0000002657  0.000034  0.000128  0.000074  0.000002
 11   -817.83011025  -0.0000000961  0.000014  0.000070  0.000039  0.000001
 12   -817.83011027  -0.0000000172  0.000008  0.000050  0.000021  0.000001
 13   -817.83011027  -0.0000000041  0.000004  0.000012  0.000008  0.000000
                  ***Gradient check signals convergence***
              ***Rediagonalizing the Fockian in SOSCF/NRSCF***

               *****************************************************
               *                     SUCCESS                       *
               *           SCF CONVERGED AFTER  14 CYCLES          *
               *****************************************************


----------------
TOTAL SCF ENERGY
----------------

Total Energy       :         -817.83011028 Eh          -22254.28869 eV

Components:
Nuclear Repulsion  :         1446.93890506 Eh           39373.20930 eV
Electronic Energy  :        -2264.76901533 Eh          -61627.49799 eV
One Electron Energy:        -3986.17384806 Eh         -108469.30488 eV
Two Electron Energy:         1721.40483272 Eh           46841.80689 eV

Virial components:
Potential Energy   :        -1631.61774845 Eh          -44398.57612 eV
Kinetic Energy     :          813.78763817 Eh           22144.28743 eV
Virial Ratio       :            2.00496748


---------------
SCF CONVERGENCE
---------------

  Last Energy change         ...   -2.7421e-09  Tolerance :   1.0000e-08
  Last MAX-Density change    ...    2.1329e-06  Tolerance :   1.0000e-07
  Last RMS-Density change    ...    7.1126e-08  Tolerance :   5.0000e-09
  Last Orbital Gradient      ...    1.3969e-06  Tolerance :   1.0000e-05
  Last Orbital Rotation      ...    4.2525e-06  Tolerance :   1.0000e-05

             **** THE GBW FILE WAS UPDATED (./ZINC000000000148/ZINC000000000148.gbw) ****
             **** DENSITY ./ZINC000000000148/ZINC000000000148.scfp WAS UPDATED ****
             **** ENERGY FILE WAS UPDATED (./ZINC000000000148/ZINC000000000148.en.tmp) ****
             **** THE GBW FILE WAS UPDATED (./ZINC000000000148/ZINC000000000148.gbw) ****
             **** DENSITY ./ZINC000000000148/ZINC000000000148.scfp WAS UPDATED ****
----------------
ORBITAL ENERGIES
----------------

  NO   OCC          E(Eh)            E(eV) 
   0   2.0000     -20.584660      -560.1371 
   1   2.0000     -15.573084      -423.7652 
   2   2.0000     -15.552784      -423.2128 
   3   2.0000     -15.534374      -422.7118 
   4   2.0000     -11.309688      -307.7523 
   5   2.0000     -11.287785      -307.1562 
   6   2.0000     -11.280583      -306.9603 
   7   2.0000     -11.269776      -306.6662 
   8   2.0000     -11.263592      -306.4979 
   9   2.0000     -11.262332      -306.4636 
  10   2.0000     -11.253873      -306.2335 
  11   2.0000     -11.250214      -306.1339 
  12   2.0000     -11.242938      -305.9359 
  13   2.0000     -11.242792      -305.9319 
  14   2.0000     -11.241655      -305.9010 
  15   2.0000     -11.228469      -305.5422 
  16   2.0000     -11.226124      -305.4784 
  17   2.0000     -11.217639      -305.2475 
  18   2.0000     -11.214801      -305.1702 
  19   2.0000      -1.388219       -37.7753 
  20   2.0000      -1.259548       -34.2740 
  21   2.0000      -1.212065       -32.9820 
  22   2.0000      -1.199711       -32.6458 
  23   2.0000      -1.127381       -30.6776 
  24   2.0000      -1.085235       -29.5308 
  25   2.0000      -1.035885       -28.1879 
  26   2.0000      -1.017633       -27.6912 
  27   2.0000      -0.979203       -26.6455 
  28   2.0000      -0.956224       -26.0202 
  29   2.0000      -0.934219       -25.4214 
  30   2.0000      -0.886819       -24.1316 
  31   2.0000      -0.878071       -23.8935 
  32   2.0000      -0.855737       -23.2858 
  33   2.0000      -0.824705       -22.4414 
  34   2.0000      -0.797265       -21.6947 
  35   2.0000      -0.771930       -21.0053 
  36   2.0000      -0.741349       -20.1731 
  37   2.0000      -0.723223       -19.6799 
  38   2.0000      -0.719917       -19.5900 
  39   2.0000      -0.669344       -18.2138 
  40   2.0000      -0.656059       -17.8523 
  41   2.0000      -0.647353       -17.6154 
  42   2.0000      -0.636050       -17.3078 
  43   2.0000      -0.631590       -17.1864 
  44   2.0000      -0.618963       -16.8428 
  45   2.0000      -0.615372       -16.7451 
  46   2.0000      -0.599113       -16.3027 
  47   2.0000      -0.590803       -16.0766 
  48   2.0000      -0.579795       -15.7770 
  49   2.0000      -0.575705       -15.6657 
  50   2.0000      -0.570430       -15.5222 
  51   2.0000      -0.561730       -15.2855 
  52   2.0000      -0.558645       -15.2015 
  53   2.0000      -0.552986       -15.0475 
  54   2.0000      -0.548448       -14.9240 
  55   2.0000      -0.529057       -14.3964 
  56   2.0000      -0.522882       -14.2283 
  57   2.0000      -0.507434       -13.8080 
  58   2.0000      -0.503424       -13.6989 
  59   2.0000      -0.500485       -13.6189 
  60   2.0000      -0.492218       -13.3939 
  61   2.0000      -0.477823       -13.0022 
  62   2.0000      -0.473314       -12.8795 
  63   2.0000      -0.455524       -12.3954 
  64   2.0000      -0.430115       -11.7040 
  65   2.0000      -0.424904       -11.5622 
  66   2.0000      -0.377918       -10.2837 
  67   2.0000      -0.340835        -9.2746 
  68   2.0000      -0.326340        -8.8802 
  69   2.0000      -0.275882        -7.5071 
  70   0.0000       0.067312         1.8316 
  71   0.0000       0.122685         3.3384 
  72   0.0000       0.173869         4.7312 
  73   0.0000       0.175953         4.7879 
  74   0.0000       0.176477         4.8022 
  75   0.0000       0.187476         5.1015 
  76   0.0000       0.192642         5.2420 
  77   0.0000       0.200554         5.4573 
  78   0.0000       0.217085         5.9072 
  79   0.0000       0.220949         6.0123 
  80   0.0000       0.234390         6.3781 
  81   0.0000       0.245518         6.6809 
  82   0.0000       0.246821         6.7164 
  83   0.0000       0.254957         6.9377 
  84   0.0000       0.256561         6.9814 
  85   0.0000       0.262430         7.1411 
  86   0.0000       0.275136         7.4868 
  87   0.0000       0.280484         7.6323 
  88   0.0000       0.283485         7.7140 
  89   0.0000       0.290284         7.8990 
  90   0.0000       0.295973         8.0538 
  91   0.0000       0.308324         8.3899 
  92   0.0000       0.317836         8.6488 
  93   0.0000       0.328600         8.9417 
  94   0.0000       0.336210         9.1487 
  95   0.0000       0.349369         9.5068 
  96   0.0000       0.375214        10.2101 
  97   0.0000       0.393326        10.7030 
  98   0.0000       0.397109        10.8059 
  99   0.0000       0.397998        10.8301 
 100   0.0000       0.408561        11.1175 
 101   0.0000       0.417208        11.3528 
 102   0.0000       0.424450        11.5499 
 103   0.0000       0.434665        11.8278 
 104   0.0000       0.444445        12.0940 
 105   0.0000       0.452736        12.3196 
 106   0.0000       0.462181        12.5766 
 107   0.0000       0.473806        12.8929 
 108   0.0000       0.477612        12.9965 
 109   0.0000       0.490107        13.3365 
 110   0.0000       0.515596        14.0301 
 111   0.0000       0.525521        14.3002 
 112   0.0000       0.537402        14.6234 
 113   0.0000       0.552419        15.0321 
 114   0.0000       0.554925        15.1003 
 115   0.0000       0.579881        15.7794 
 116   0.0000       0.593136        16.1401 
 117   0.0000       0.608730        16.5644 
 118   0.0000       0.612963        16.6796 
 119   0.0000       0.627052        17.0629 
 120   0.0000       0.635481        17.2923 
 121   0.0000       0.650270        17.6948 
 122   0.0000       0.655574        17.8391 
 123   0.0000       0.659872        17.9560 
 124   0.0000       0.671067        18.2607 
 125   0.0000       0.674979        18.3671 
 126   0.0000       0.679972        18.5030 
 127   0.0000       0.685823        18.6622 
 128   0.0000       0.707128        19.2419 
 129   0.0000       0.713030        19.4025 
 130   0.0000       0.714344        19.4383 
 131   0.0000       0.738579        20.0978 
 132   0.0000       0.750983        20.4353 
 133   0.0000       0.755769        20.5655 
 134   0.0000       0.773941        21.0600 
 135   0.0000       0.781412        21.2633 
 136   0.0000       0.792309        21.5598 
 137   0.0000       0.799362        21.7517 
 138   0.0000       0.813598        22.1391 
 139   0.0000       0.823690        22.4137 
 140   0.0000       0.828692        22.5499 
 141   0.0000       0.842781        22.9332 
 142   0.0000       0.845524        23.0079 
 143   0.0000       0.849112        23.1055 
 144   0.0000       0.857551        23.3351 
 145   0.0000       0.862377        23.4665 
 146   0.0000       0.867046        23.5935 
 147   0.0000       0.876300        23.8453 
 148   0.0000       0.879629        23.9359 
 149   0.0000       0.882382        24.0108 
 150   0.0000       0.890022        24.2187 
 151   0.0000       0.894446        24.3391 
 152   0.0000       0.897432        24.4204 
 153   0.0000       0.900329        24.4992 
 154   0.0000       0.908754        24.7285 
 155   0.0000       0.911373        24.7997 
 156   0.0000       0.914965        24.8975 
 157   0.0000       0.918763        25.0008 
 158   0.0000       0.922432        25.1006 
 159   0.0000       0.930360        25.3164 
 160   0.0000       0.936808        25.4918 
 161   0.0000       0.941770        25.6269 
 162   0.0000       0.950427        25.8624 
 163   0.0000       0.952453        25.9176 
 164   0.0000       0.958273        26.0759 
 165   0.0000       0.964473        26.2447 
 166   0.0000       0.973517        26.4907 
 167   0.0000       0.977443        26.5976 
 168   0.0000       0.980207        26.6728 
 169   0.0000       0.988713        26.9042 
 170   0.0000       0.993747        27.0412 
 171   0.0000       1.002975        27.2923 
 172   0.0000       1.004737        27.3403 
 173   0.0000       1.024973        27.8909 
 174   0.0000       1.031856        28.0782 
 175   0.0000       1.041308        28.3354 
 176   0.0000       1.061416        28.8826 
 177   0.0000       1.067795        29.0562 
 178   0.0000       1.076023        29.2801 
 179   0.0000       1.085770        29.5453 
 180   0.0000       1.096708        29.8429 
 181   0.0000       1.110372        30.2148 
 182   0.0000       1.130803        30.7707 
 183   0.0000       1.144094        31.1324 
 184   0.0000       1.158152        31.5149 
 185   0.0000       1.194984        32.5172 
 186   0.0000       1.202118        32.7113 
 187   0.0000       1.225583        33.3498 
 188   0.0000       1.234350        33.5884 
 189   0.0000       1.259256        34.2661 
 190   0.0000       1.262205        34.3463 
 191   0.0000       1.279308        34.8118 
 192   0.0000       1.290736        35.1227 
 193   0.0000       1.300943        35.4004 
 194   0.0000       1.303690        35.4752 
 195   0.0000       1.319505        35.9056 
 196   0.0000       1.323945        36.0264 
 197   0.0000       1.354666        36.8623 
 198   0.0000       1.361164        37.0392 
 199   0.0000       1.387358        37.7519 
 200   0.0000       1.400914        38.1208 
 201   0.0000       1.405286        38.2398 
 202   0.0000       1.433972        39.0203 
 203   0.0000       1.439313        39.1657 
 204   0.0000       1.449709        39.4486 
 205   0.0000       1.459285        39.7092 
 206   0.0000       1.488820        40.5128 
 207   0.0000       1.500792        40.8386 
 208   0.0000       1.504518        40.9400 
 209   0.0000       1.506896        41.0047 
 210   0.0000       1.522866        41.4393 
 211   0.0000       1.525763        41.5181 
 212   0.0000       1.535903        41.7941 
 213   0.0000       1.562302        42.5124 
 214   0.0000       1.564563        42.5739 
 215   0.0000       1.569236        42.7011 
 216   0.0000       1.578178        42.9444 
 217   0.0000       1.591343        43.3027 
 218   0.0000       1.593427        43.3594 
 219   0.0000       1.619393        44.0659 
 220   0.0000       1.630636        44.3719 
 221   0.0000       1.639539        44.6141 
 222   0.0000       1.644405        44.7465 
 223   0.0000       1.669203        45.4213 
 224   0.0000       1.722977        46.8846 
 225   0.0000       1.752721        47.6940 
 226   0.0000       1.766107        48.0582 
 227   0.0000       1.793784        48.8113 
 228   0.0000       1.800077        48.9826 
 229   0.0000       1.803420        49.0736 
 230   0.0000       1.817595        49.4593 
 231   0.0000       1.825007        49.6610 
 232   0.0000       1.827409        49.7263 
 233   0.0000       1.872694        50.9586 
 234   0.0000       1.891972        51.4832 
 235   0.0000       1.914220        52.0886 
 236   0.0000       1.931402        52.5561 
 237   0.0000       1.947762        53.0013 
 238   0.0000       1.955754        53.2188 
 239   0.0000       1.968667        53.5702 
 240   0.0000       1.969894        53.6035 
 241   0.0000       1.989886        54.1476 
 242   0.0000       2.009766        54.6885 
 243   0.0000       2.014147        54.8077 
 244   0.0000       2.020362        54.9768 
 245   0.0000       2.030921        55.2642 
 246   0.0000       2.038451        55.4691 
 247   0.0000       2.047069        55.7036 
 248   0.0000       2.048506        55.7427 
 249   0.0000       2.057958        55.9999 
 250   0.0000       2.062511        56.1238 
 251   0.0000       2.067075        56.2480 
 252   0.0000       2.080998        56.6268 
 253   0.0000       2.086568        56.7784 
 254   0.0000       2.093909        56.9781 
 255   0.0000       2.101819        57.1934 
 256   0.0000       2.110808        57.4380 
 257   0.0000       2.114062        57.5266 
 258   0.0000       2.117335        57.6156 
 259   0.0000       2.125034        57.8251 
 260   0.0000       2.128000        57.9058 
 261   0.0000       2.137606        58.1672 
 262   0.0000       2.141504        58.2733 
 263   0.0000       2.145672        58.3867 
 264   0.0000       2.151916        58.5566 
 265   0.0000       2.164697        58.9044 
 266   0.0000       2.168518        59.0084 
 267   0.0000       2.192059        59.6490 
 268   0.0000       2.199272        59.8452 
 269   0.0000       2.214163        60.2504 
 270   0.0000       2.221414        60.4478 
 271   0.0000       2.229734        60.6742 
 272   0.0000       2.233277        60.7706 
 273   0.0000       2.238913        60.9239 
 274   0.0000       2.246412        61.1280 
 275   0.0000       2.258151        61.4474 
 276   0.0000       2.263887        61.6035 
 277   0.0000       2.279698        62.0337 
 278   0.0000       2.293186        62.4008 
 279   0.0000       2.297181        62.5095 
 280   0.0000       2.302497        62.6541 
 281   0.0000       2.326898        63.3181 
 282   0.0000       2.337058        63.5946 
 283   0.0000       2.346766        63.8587 
 284   0.0000       2.356960        64.1362 
 285   0.0000       2.371628        64.5353 
 286   0.0000       2.407691        65.5166 
 287   0.0000       2.421947        65.9045 
 288   0.0000       2.430463        66.1363 
 289   0.0000       2.446762        66.5798 
 290   0.0000       2.461732        66.9871 
 291   0.0000       2.475207        67.3538 
 292   0.0000       2.481180        67.5163 
 293   0.0000       2.489983        67.7559 
 294   0.0000       2.508583        68.2620 
 295   0.0000       2.525311        68.7172 
 296   0.0000       2.529122        68.8209 
 297   0.0000       2.550726        69.4088 
 298   0.0000       2.561426        69.6999 
 299   0.0000       2.570972        69.9597 
 300   0.0000       2.575296        70.0774 
 301   0.0000       2.580598        70.2216 
 302   0.0000       2.612559        71.0913 
 303   0.0000       2.628049        71.5128 
 304   0.0000       2.637231        71.7627 
 305   0.0000       2.655192        72.2515 
 306   0.0000       2.683106        73.0110 
 307   0.0000       2.684063        73.0371 
 308   0.0000       2.689735        73.1914 
 309   0.0000       2.717336        73.9425 
 310   0.0000       2.725556        74.1662 
 311   0.0000       2.739839        74.5548 
 312   0.0000       2.758677        75.0674 
 313   0.0000       2.767912        75.3187 
 314   0.0000       2.772466        75.4426 
 315   0.0000       2.786189        75.8160 
 316   0.0000       2.797981        76.1369 
 317   0.0000       2.813369        76.5557 
 318   0.0000       2.827430        76.9383 
 319   0.0000       2.851599        77.5959 
 320   0.0000       2.863700        77.9252 
 321   0.0000       2.882953        78.4491 
 322   0.0000       2.900918        78.9380 
 323   0.0000       2.924883        79.5901 
 324   0.0000       2.927797        79.6694 
 325   0.0000       2.948206        80.2248 
 326   0.0000       2.979185        81.0677 
 327   0.0000       2.997494        81.5659 
 328   0.0000       2.999979        81.6336 
 329   0.0000       3.008383        81.8623 
 330   0.0000       3.028378        82.4063 
 331   0.0000       3.042817        82.7992 
 332   0.0000       3.058444        83.2245 
 333   0.0000       3.081558        83.8535 
 334   0.0000       3.085072        83.9491 
 335   0.0000       3.092510        84.1515 
 336   0.0000       3.115086        84.7658 
 337   0.0000       3.124918        85.0333 
 338   0.0000       3.169140        86.2367 
 339   0.0000       3.195721        86.9600 
 340   0.0000       3.196853        86.9908 
 341   0.0000       3.220210        87.6264 
 342   0.0000       3.237971        88.1097 
 343   0.0000       3.246922        88.3532 
 344   0.0000       3.259334        88.6910 
 345   0.0000       3.264435        88.8298 
 346   0.0000       3.273122        89.0662 
 347   0.0000       3.283733        89.3549 
 348   0.0000       3.288249        89.4778 
 349   0.0000       3.308010        90.0155 
 350   0.0000       3.321344        90.3784 
 351   0.0000       3.356657        91.3393 
 352   0.0000       3.363845        91.5349 
 353   0.0000       3.371402        91.7405 
 354   0.0000       3.380985        92.0013 
 355   0.0000       3.419640        93.0531 
 356   0.0000       3.441570        93.6499 
 357   0.0000       3.501026        95.2678 
 358   0.0000       3.502117        95.2974 
 359   0.0000       3.516005        95.6754 
 360   0.0000       3.545043        96.4655 
 361   0.0000       3.556430        96.7754 
 362   0.0000       3.575947        97.3065 
 363   0.0000       3.595805        97.8468 
 364   0.0000       3.603969        98.0690 
 365   0.0000       3.660681        99.6122 
 366   0.0000       3.796188       103.2995 
 367   0.0000       3.843111       104.5764 
 368   0.0000       3.961497       107.7978 
 369   0.0000       4.054427       110.3266 
 370   0.0000       4.229516       115.0910 

                    ********************************
                    * MULLIKEN POPULATION ANALYSIS *
                    ********************************

-----------------------
MULLIKEN ATOMIC CHARGES
-----------------------
   0 C :    0.050982
   1 C :   -0.025010
   2 C :   -0.048871
   3 C :    0.183746
   4 N :   -0.624605
   5 C :    0.151073
   6 C :    0.154182
   7 N :   -0.405190
   8 C :    0.179010
   9 C :   -0.143590
  10 C :    0.329144
  11 O :   -0.365832
  12 C :   -0.137752
  13 C :   -0.048226
  14 C :    0.054220
  15 C :   -0.097427
  16 C :    0.154234
  17 N :   -0.400612
  18 C :    0.115354
  19 H :    0.020109
  20 H :    0.019895
  21 H :    0.035503
  22 H :    0.042904
  23 H :    0.028706
  24 H :    0.028335
  25 H :    0.023929
  26 H :    0.048156
  27 H :    0.003300
  28 H :    0.027113
  29 H :    0.032081
  30 H :    0.028694
  31 H :    0.026214
  32 H :    0.002965
  33 H :    0.167441
  34 H :    0.037834
  35 H :    0.209868
  36 H :    0.001060
  37 H :    0.041149
  38 H :    0.050469
  39 H :    0.049444
Sum of atomic charges:   -0.0000000

--------------------------------
MULLIKEN REDUCED ORBITAL CHARGES
--------------------------------
  0 C s       :     3.017983  s :     3.017983
      pz      :     0.910985  p :     2.893954
      px      :     0.985480
      py      :     0.997490
      dz2     :     0.010137  d :     0.037081
      dxz     :     0.009067
      dyz     :     0.003863
      dx2y2   :     0.007586
      dxy     :     0.006427
  1 C s       :     3.143599  s :     3.143599
      pz      :     0.999616  p :     2.811813
      px      :     0.822344
      py      :     0.989853
      dz2     :     0.016721  d :     0.069598
      dxz     :     0.017762
      dyz     :     0.006773
      dx2y2   :     0.014855
      dxy     :     0.013487
  2 C s       :     3.071125  s :     3.071125
      pz      :     0.949834  p :     2.933797
      px      :     0.966564
      py      :     1.017399
      dz2     :     0.010568  d :     0.043948
      dxz     :     0.010802
      dyz     :     0.006470
      dx2y2   :     0.011700
      dxy     :     0.004409
  3 C s       :     3.011210  s :     3.011210
      pz      :     0.845760  p :     2.744416
      px      :     0.896749
      py      :     1.001907
      dz2     :     0.015834  d :     0.060628
      dxz     :     0.016853
      dyz     :     0.008188
      dx2y2   :     0.013990
      dxy     :     0.005762
  4 N s       :     3.590605  s :     3.590605
      pz      :     1.576684  p :     4.001220
      px      :     1.162444
      py      :     1.262092
      dz2     :     0.004623  d :     0.032780
      dxz     :     0.009047
      dyz     :     0.002864
      dx2y2   :     0.010788
      dxy     :     0.005458
  5 C s       :     3.000530  s :     3.000530
      pz      :     0.986330  p :     2.795633
      px      :     1.022121
      py      :     0.787182
      dz2     :     0.006612  d :     0.052764
      dxz     :     0.009572
      dyz     :     0.014642
      dx2y2   :     0.014117
      dxy     :     0.007820
  6 C s       :     2.999628  s :     2.999628
      pz      :     0.983192  p :     2.793310
      px      :     0.835567
      py      :     0.974550
      dz2     :     0.007697  d :     0.052880
      dxz     :     0.017053
      dyz     :     0.005661
      dx2y2   :     0.013187
      dxy     :     0.009281
  7 N s       :     3.462146  s :     3.462146
      pz      :     1.563857  p :     3.917111
      px      :     1.232027
      py      :     1.121226
      dz2     :     0.004190  d :     0.025933
      dxz     :     0.005255
      dyz     :     0.004531
      dx2y2   :     0.005492
      dxy     :     0.006464
  8 C s       :     2.991935  s :     2.991935
      pz      :     0.887421  p :     2.757586
      px      :     0.883087
      py      :     0.987078
      dz2     :     0.015786  d :     0.071469
      dxz     :     0.011315
      dyz     :     0.015338
      dx2y2   :     0.013572
      dxy     :     0.015458
  9 C s       :     3.280183  s :     3.280183
      pz      :     0.939148  p :     2.824291
      px      :     0.977589
      py      :     0.907554
      dz2     :     0.006425  d :     0.039116
      dxz     :     0.006716
      dyz     :     0.009203
      dx2y2   :     0.008708
      dxy     :     0.008065
 10 C s       :     2.940326  s :     2.940326
      pz      :     0.981222  p :     2.638555
      px      :     0.935815
      py      :     0.721518
      dz2     :     0.016843  d :     0.091976
      dxz     :     0.010462
      dyz     :     0.020557
      dx2y2   :     0.022318
      dxy     :     0.021796
 11 O s       :     3.713859  s :     3.713859
      pz      :     1.629376  p :     4.636522
      px      :     1.570532
      py      :     1.436614
      dz2     :     0.002436  d :     0.015451
      dxz     :     0.003708
      dyz     :     0.002345
      dx2y2   :     0.005026
      dxy     :     0.001935
 12 C s       :     3.201254  s :     3.201254
      pz      :     0.970720  p :     2.896318
      px      :     1.021022
      py      :     0.904576
      dz2     :     0.007284  d :     0.040180
      dxz     :     0.005663
      dyz     :     0.010147
      dx2y2   :     0.007686
      dxy     :     0.009400
 13 C s       :     3.001561  s :     3.001561
      pz      :     1.011482  p :     2.991934
      px      :     1.003426
      py      :     0.977026
      dz2     :     0.008675  d :     0.054731
      dxz     :     0.008362
      dyz     :     0.014033
      dx2y2   :     0.011858
      dxy     :     0.011804
 14 C s       :     3.121217  s :     3.121217
      pz      :     0.929583  p :     2.780169
      px      :     0.925784
      py      :     0.924801
      dz2     :     0.006925  d :     0.044395
      dxz     :     0.006671
      dyz     :     0.011472
      dx2y2   :     0.009313
      dxy     :     0.010014
 15 C s       :     3.140288  s :     3.140288
      pz      :     0.972057  p :     2.914132
      px      :     0.980813
      py      :     0.961261
      dz2     :     0.006688  d :     0.043008
      dxz     :     0.007055
      dyz     :     0.010454
      dx2y2   :     0.009772
      dxy     :     0.009039
 16 C s       :     3.085914  s :     3.085914
      pz      :     0.877475  p :     2.695857
      px      :     0.898106
      py      :     0.920276
      dz2     :     0.014424  d :     0.063994
      dxz     :     0.011735
      dyz     :     0.013982
      dx2y2   :     0.013078
      dxy     :     0.010775
 17 N s       :     3.594083  s :     3.594083
      pz      :     1.303988  p :     3.774487
      px      :     1.356751
      py      :     1.113748
      dz2     :     0.007532  d :     0.032042
      dxz     :     0.004569
      dyz     :     0.005893
      dx2y2   :     0.005718
      dxy     :     0.008330
 18 C s       :     3.006366  s :     3.006366
      pz      :     1.000445  p :     2.808531
      px      :     0.969894
      py      :     0.838192
      dz2     :     0.010450  d :     0.069749
      dxz     :     0.008424
      dyz     :     0.019048
      dx2y2   :     0.015250
      dxy     :     0.016577
 19 H s       :     0.954750  s :     0.954750
      pz      :     0.003407  p :     0.025141
      px      :     0.004614
      py      :     0.017120
 20 H s       :     0.955013  s :     0.955013
      pz      :     0.004365  p :     0.025092
      px      :     0.013068
      py      :     0.007659
 21 H s       :     0.939507  s :     0.939507
      pz      :     0.008676  p :     0.024990
      px      :     0.011667
      py      :     0.004647
 22 H s       :     0.934472  s :     0.934472
      pz      :     0.002728  p :     0.022624
      px      :     0.002208
      py      :     0.017688
 23 H s       :     0.947272  s :     0.947272
      pz      :     0.005051  p :     0.024022
      px      :     0.013881
      py      :     0.005089
 24 H s       :     0.948089  s :     0.948089
      pz      :     0.002847  p :     0.023575
      px      :     0.003276
      py      :     0.017453
 25 H s       :     0.952854  s :     0.952854
      pz      :     0.002874  p :     0.023217
      px      :     0.002866
      py      :     0.017476
 26 H s       :     0.927966  s :     0.927966
      pz      :     0.005351  p :     0.023878
      px      :     0.013289
      py      :     0.005239
 27 H s       :     0.972451  s :     0.972451
      pz      :     0.012072  p :     0.024250
      px      :     0.005600
      py      :     0.006577
 28 H s       :     0.948538  s :     0.948538
      pz      :     0.012342  p :     0.024349
      px      :     0.009667
      py      :     0.002340
 29 H s       :     0.943424  s :     0.943424
      pz      :     0.005487  p :     0.024495
      px      :     0.014694
      py      :     0.004314
 30 H s       :     0.946953  s :     0.946953
      pz      :     0.011838  p :     0.024353
      px      :     0.008704
      py      :     0.003812
 31 H s       :     0.949358  s :     0.949358
      pz      :     0.004714  p :     0.024428
      px      :     0.002525
      py      :     0.017189
 32 H s       :     0.972757  s :     0.972757
      pz      :     0.012812  p :     0.024278
      px      :     0.004858
      py      :     0.006607
 33 H s       :     0.785566  s :     0.785566
      pz      :     0.011706  p :     0.046993
      px      :     0.006082
      py      :     0.029204
 34 H s       :     0.935896  s :     0.935896
      pz      :     0.012203  p :     0.026270
      px      :     0.005325
      py      :     0.008743
 35 H s       :     0.719234  s :     0.719234
      pz      :     0.027743  p :     0.070898
      px      :     0.029233
      py      :     0.013921
 36 H s       :     0.972500  s :     0.972500
      pz      :     0.010216  p :     0.026439
      px      :     0.011614
      py      :     0.004610
 37 H s       :     0.933174  s :     0.933174
      pz      :     0.010276  p :     0.025677
      px      :     0.011190
      py      :     0.004211
 38 H s       :     0.923761  s :     0.923761
      pz      :     0.011365  p :     0.025770
      px      :     0.005277
      py      :     0.009128
 39 H s       :     0.926044  s :     0.926044
      pz      :     0.002379  p :     0.024511
      px      :     0.005311
      py      :     0.016821


                     *******************************
                     * LOEWDIN POPULATION ANALYSIS *
                     *******************************

----------------------
LOEWDIN ATOMIC CHARGES
----------------------
   0 C :   -0.030568
   1 C :    0.054452
   2 C :   -0.038762
   3 C :    0.060076
   4 N :   -0.202785
   5 C :    0.054524
   6 C :    0.053506
   7 N :   -0.097085
   8 C :    0.087520
   9 C :   -0.093808
  10 C :    0.114295
  11 O :   -0.117287
  12 C :   -0.131914
  13 C :   -0.020490
  14 C :    0.029275
  15 C :   -0.055757
  16 C :    0.046986
  17 N :   -0.135887
  18 C :   -0.018447
  19 H :    0.014327
  20 H :    0.010939
  21 H :    0.018019
  22 H :    0.014354
  23 H :    0.012773
  24 H :    0.012132
  25 H :    0.009001
  26 H :    0.013635
  27 H :   -0.010538
  28 H :    0.011144
  29 H :    0.014135
  30 H :    0.011884
  31 H :    0.011836
  32 H :   -0.010923
  33 H :    0.069628
  34 H :    0.034232
  35 H :    0.102101
  36 H :    0.017780
  37 H :    0.031406
  38 H :    0.032656
  39 H :    0.021639

-------------------------------
LOEWDIN REDUCED ORBITAL CHARGES
-------------------------------
  0 C s       :     2.840494  s :     2.840494
      pz      :     1.008884  p :     3.106689
      px      :     1.047093
      py      :     1.050713
      dz2     :     0.023236  d :     0.083385
      dxz     :     0.020678
      dyz     :     0.008392
      dx2y2   :     0.016825
      dxy     :     0.014254
  1 C s       :     2.834145  s :     2.834145
      pz      :     1.026675  p :     2.967012
      px      :     0.926625
      py      :     1.013712
      dz2     :     0.035196  d :     0.144391
      dxz     :     0.036850
      dyz     :     0.012577
      dx2y2   :     0.031759
      dxy     :     0.028011
  2 C s       :     2.844289  s :     2.844289
      pz      :     1.022914  p :     3.097846
      px      :     1.027977
      py      :     1.046956
      dz2     :     0.023400  d :     0.096626
      dxz     :     0.024284
      dyz     :     0.013580
      dx2y2   :     0.026050
      dxy     :     0.009312
  3 C s       :     2.828126  s :     2.828126
      pz      :     0.974637  p :     2.980974
      px      :     0.963170
      py      :     1.043167
      dz2     :     0.036164  d :     0.130824
      dxz     :     0.035462
      dyz     :     0.017373
      dx2y2   :     0.029775
      dxy     :     0.012050
  4 N s       :     3.143559  s :     3.143559
      pz      :     1.547037  p :     3.998016
      px      :     1.182220
      py      :     1.268759
      dz2     :     0.007819  d :     0.061210
      dxz     :     0.015864
      dyz     :     0.005585
      dx2y2   :     0.020477
      dxy     :     0.011466
  5 C s       :     2.828085  s :     2.828085
      pz      :     1.039461  p :     3.000997
      px      :     1.059100
      py      :     0.902436
      dz2     :     0.014019  d :     0.116395
      dxz     :     0.021423
      dyz     :     0.033114
      dx2y2   :     0.030275
      dxy     :     0.017563
  6 C s       :     2.827905  s :     2.827905
      pz      :     1.042561  p :     3.001784
      px      :     0.933080
      py      :     1.026143
      dz2     :     0.016832  d :     0.116805
      dxz     :     0.039112
      dyz     :     0.012397
      dx2y2   :     0.029057
      dxy     :     0.019408
  7 N s       :     3.096504  s :     3.096504
      pz      :     1.528000  p :     3.947286
      px      :     1.253244
      py      :     1.166042
      dz2     :     0.006951  d :     0.053295
      dxz     :     0.010743
      dyz     :     0.008348
      dx2y2   :     0.013738
      dxy     :     0.013514
  8 C s       :     2.838395  s :     2.838395
      pz      :     0.943593  p :     2.922514
      px      :     0.923146
      py      :     1.055774
      dz2     :     0.032858  d :     0.151571
      dxz     :     0.024063
      dyz     :     0.033528
      dx2y2   :     0.028858
      dxy     :     0.032263
  9 C s       :     2.846406  s :     2.846406
      pz      :     1.054027  p :     3.156236
      px      :     1.056541
      py      :     1.045668
      dz2     :     0.014037  d :     0.091167
      dxz     :     0.015258
      dyz     :     0.022265
      dx2y2   :     0.020246
      dxy     :     0.019362
 10 C s       :     2.827559  s :     2.827559
      pz      :     1.025089  p :     2.868862
      px      :     0.968181
      py      :     0.875591
      dz2     :     0.034135  d :     0.189285
      dxz     :     0.021598
      dyz     :     0.043464
      dx2y2   :     0.046488
      dxy     :     0.043600
 11 O s       :     3.417930  s :     3.417930
      pz      :     1.643967  p :     4.672307
      px      :     1.578509
      py      :     1.449831
      dz2     :     0.003515  d :     0.027051
      dxz     :     0.007393
      dyz     :     0.003787
      dx2y2   :     0.008535
      dxy     :     0.003820
 12 C s       :     2.840929  s :     2.840929
      pz      :     1.069337  p :     3.196335
      px      :     1.086054
      py      :     1.040944
      dz2     :     0.015154  d :     0.094651
      dxz     :     0.013448
      dyz     :     0.025532
      dx2y2   :     0.018833
      dxy     :     0.021684
 13 C s       :     2.827301  s :     2.827301
      pz      :     1.015339  p :     3.068387
      px      :     1.000720
      py      :     1.052327
      dz2     :     0.019456  d :     0.124803
      dxz     :     0.018893
      dyz     :     0.032352
      dx2y2   :     0.027161
      dxy     :     0.026941
 14 C s       :     2.851678  s :     2.851678
      pz      :     0.993821  p :     3.019995
      px      :     0.976898
      py      :     1.049275
      dz2     :     0.014851  d :     0.099053
      dxz     :     0.014920
      dyz     :     0.026066
      dx2y2   :     0.021187
      dxy     :     0.022029
 15 C s       :     2.853257  s :     2.853257
      pz      :     1.026878  p :     3.103592
      px      :     1.025047
      py      :     1.051667
      dz2     :     0.014622  d :     0.098908
      dxz     :     0.015816
      dyz     :     0.024917
      dx2y2   :     0.022284
      dxy     :     0.021268
 16 C s       :     2.849152  s :     2.849152
      pz      :     0.976715  p :     2.964981
      px      :     0.981786
      py      :     1.006480
      dz2     :     0.030535  d :     0.138882
      dxz     :     0.026846
      dyz     :     0.030030
      dx2y2   :     0.028388
      dxy     :     0.023083
 17 N s       :     3.221170  s :     3.221170
      pz      :     1.314139  p :     3.855232
      px      :     1.352159
      py      :     1.188934
      dz2     :     0.012204  d :     0.059485
      dxz     :     0.007189
      dyz     :     0.013091
      dx2y2   :     0.011574
      dxy     :     0.015426
 18 C s       :     2.818381  s :     2.818381
      pz      :     1.026222  p :     3.042855
      px      :     1.024886
      py      :     0.991748
      dz2     :     0.023082  d :     0.157212
      dxz     :     0.018948
      dyz     :     0.043089
      dx2y2   :     0.033607
      dxy     :     0.038485
 19 H s       :     0.920444  s :     0.920444
      pz      :     0.012635  p :     0.065229
      px      :     0.013016
      py      :     0.039577
 20 H s       :     0.924076  s :     0.924076
      pz      :     0.014345  p :     0.064985
      px      :     0.031310
      py      :     0.019330
 21 H s       :     0.916595  s :     0.916595
      pz      :     0.024405  p :     0.065386
      px      :     0.027769
      py      :     0.013212
 22 H s       :     0.919291  s :     0.919291
      pz      :     0.013569  p :     0.066356
      px      :     0.010080
      py      :     0.042707
 23 H s       :     0.919964  s :     0.919964
      pz      :     0.017168  p :     0.067263
      px      :     0.034776
      py      :     0.015319
 24 H s       :     0.920528  s :     0.920528
      pz      :     0.013675  p :     0.067340
      px      :     0.012396
      py      :     0.041269
 25 H s       :     0.927570  s :     0.927570
      pz      :     0.010682  p :     0.063429
      px      :     0.011258
      py      :     0.041488
 26 H s       :     0.921093  s :     0.921093
      pz      :     0.016450  p :     0.065272
      px      :     0.033638
      py      :     0.015183
 27 H s       :     0.945279  s :     0.945279
      pz      :     0.029225  p :     0.065259
      px      :     0.015755
      py      :     0.020280
 28 H s       :     0.925754  s :     0.925754
      pz      :     0.029759  p :     0.063102
      px      :     0.024042
      py      :     0.009301
 29 H s       :     0.922495  s :     0.922495
      pz      :     0.015093  p :     0.063370
      px      :     0.034979
      py      :     0.013298
 30 H s       :     0.925011  s :     0.925011
      pz      :     0.028470  p :     0.063105
      px      :     0.022984
      py      :     0.011651
 31 H s       :     0.925094  s :     0.925094
      pz      :     0.012944  p :     0.063070
      px      :     0.009546
      py      :     0.040580
 32 H s       :     0.945549  s :     0.945549
      pz      :     0.031716  p :     0.065373
      px      :     0.016129
      py      :     0.017528
 33 H s       :     0.799148  s :     0.799148
      pz      :     0.039372  p :     0.131224
      px      :     0.021837
      py      :     0.070015
 34 H s       :     0.893556  s :     0.893556
      pz      :     0.031504  p :     0.072212
      px      :     0.017346
      py      :     0.023363
 35 H s       :     0.719748  s :     0.719748
      pz      :     0.071794  p :     0.178150
      px      :     0.071221
      py      :     0.035136
 36 H s       :     0.910667  s :     0.910667
      pz      :     0.027048  p :     0.071553
      px      :     0.030398
      py      :     0.014108
 37 H s       :     0.900516  s :     0.900516
      pz      :     0.026124  p :     0.068078
      px      :     0.028152
      py      :     0.013802
 38 H s       :     0.897618  s :     0.897618
      pz      :     0.028937  p :     0.069726
      px      :     0.016819
      py      :     0.023970
 39 H s       :     0.911605  s :     0.911605
      pz      :     0.009824  p :     0.066756
      px      :     0.016282
      py      :     0.040650


                      *****************************
                      * MAYER POPULATION ANALYSIS *
                      *****************************

  NA   - Mulliken gross atomic population
  ZA   - Total nuclear charge
  QA   - Mulliken gross atomic charge
  VA   - Mayer's total valence
  BVA  - Mayer's bonded valence
  FA   - Mayer's free valence

  ATOM       NA         ZA         QA         VA         BVA        FA
  0 C      5.9490     6.0000     0.0510     3.9007     3.9007    -0.0000
  1 C      6.0250     6.0000    -0.0250     3.9270     3.9270     0.0000
  2 C      6.0489     6.0000    -0.0489     3.8267     3.8267    -0.0000
  3 C      5.8163     6.0000     0.1837     3.8754     3.8754     0.0000
  4 N      7.6246     7.0000    -0.6246     2.8464     2.8464     0.0000
  5 C      5.8489     6.0000     0.1511     3.8738     3.8738    -0.0000
  6 C      5.8458     6.0000     0.1542     3.8757     3.8757     0.0000
  7 N      7.4052     7.0000    -0.4052     2.9425     2.9425    -0.0000
  8 C      5.8210     6.0000     0.1790     3.9165     3.9165    -0.0000
  9 C      6.1436     6.0000    -0.1436     3.8586     3.8586     0.0000
 10 C      5.6709     6.0000     0.3291     3.8197     3.8197     0.0000
 11 O      8.3658     8.0000    -0.3658     2.0518     2.0518    -0.0000
 12 C      6.1378     6.0000    -0.1378     3.8023     3.8023     0.0000
 13 C      6.0482     6.0000    -0.0482     3.8680     3.8680    -0.0000
 14 C      5.9458     6.0000     0.0542     3.8992     3.8992    -0.0000
 15 C      6.0974     6.0000    -0.0974     3.8746     3.8746     0.0000
 16 C      5.8458     6.0000     0.1542     3.9197     3.9197     0.0000
 17 N      7.4006     7.0000    -0.4006     3.0110     3.0110     0.0000
 18 C      5.8846     6.0000     0.1154     3.8643     3.8643    -0.0000
 19 H      0.9799     1.0000     0.0201     0.9905     0.9905    -0.0000
 20 H      0.9801     1.0000     0.0199     0.9804     0.9804     0.0000
 21 H      0.9645     1.0000     0.0355     0.9894     0.9894    -0.0000
 22 H      0.9571     1.0000     0.0429     0.9751     0.9751    -0.0000
 23 H      0.9713     1.0000     0.0287     0.9807     0.9807     0.0000
 24 H      0.9717     1.0000     0.0283     0.9866     0.9866     0.0000
 25 H      0.9761     1.0000     0.0239     0.9863     0.9863     0.0000
 26 H      0.9518     1.0000     0.0482     0.9811     0.9811     0.0000
 27 H      0.9967     1.0000     0.0033     0.9757     0.9757    -0.0000
 28 H      0.9729     1.0000     0.0271     0.9845     0.9845    -0.0000
 29 H      0.9679     1.0000     0.0321     0.9900     0.9900    -0.0000
 30 H      0.9713     1.0000     0.0287     0.9847     0.9847     0.0000
 31 H      0.9738     1.0000     0.0262     0.9862     0.9862     0.0000
 32 H      0.9970     1.0000     0.0030     0.9757     0.9757    -0.0000
 33 H      0.8326     1.0000     0.1674     1.0016     1.0016    -0.0000
 34 H      0.9622     1.0000     0.0378     1.0066     1.0066     0.0000
 35 H      0.7901     1.0000     0.2099     0.9883     0.9883    -0.0000
 36 H      0.9989     1.0000     0.0011     1.0049     1.0049     0.0000
 37 H      0.9589     1.0000     0.0411     0.9930     0.9930     0.0000
 38 H      0.9495     1.0000     0.0505     0.9880     0.9880     0.0000
 39 H      0.9506     1.0000     0.0494     0.9908     0.9908     0.0000

  Mayer bond orders larger than 0.100000
B(  0-C ,  1-C ) :   1.0431 B(  0-C , 19-H ) :   0.9774 B(  0-C , 20-H ) :   0.9835 
B(  0-C , 21-H ) :   0.9848 B(  1-C ,  2-C ) :   1.0088 B(  1-C ,  7-N ) :   0.9148 
B(  1-C , 22-H ) :   0.9675 B(  2-C ,  3-C ) :   0.9973 B(  2-C , 23-H ) :   0.9690 
B(  2-C , 24-H ) :   0.9552 B(  3-C ,  4-N ) :   0.9629 B(  3-C , 25-H ) :   0.9832 
B(  3-C , 26-H ) :   0.9813 B(  4-N ,  5-C ) :   0.9465 B(  4-N ,  6-C ) :   0.9470 
B(  5-C , 27-H ) :   0.9772 B(  5-C , 28-H ) :   0.9914 B(  5-C , 29-H ) :   0.9903 
B(  6-C , 30-H ) :   0.9917 B(  6-C , 31-H ) :   0.9904 B(  6-C , 32-H ) :   0.9762 
B(  7-N ,  8-C ) :   1.1238 B(  7-N , 33-H ) :   0.9271 B(  8-C ,  9-C ) :   1.4942 
B(  8-C , 18-C ) :   1.2204 B(  9-C , 10-C ) :   1.2515 B(  9-C , 34-H ) :   1.0212 
B( 10-C , 11-O ) :   1.0647 B( 10-C , 12-C ) :   1.4608 B( 11-O , 35-H ) :   0.9600 
B( 12-C , 13-C ) :   1.2368 B( 12-C , 36-H ) :   1.0065 B( 13-C , 14-C ) :   1.2890 
B( 13-C , 18-C ) :   1.2672 B( 14-C , 15-C ) :   1.5458 B( 14-C , 37-H ) :   0.9941 
B( 15-C , 16-C ) :   1.2896 B( 15-C , 38-H ) :   0.9894 B( 16-C , 17-N ) :   1.5624 
B( 16-C , 39-H ) :   1.0016 B( 17-N , 18-C ) :   1.3237 

-------
TIMINGS
-------

Total SCF time: 0 days 0 hours 0 min 21 sec 

Total time                  ....      21.275 sec
Sum of individual times     ....      20.966 sec  ( 98.5%)

Fock matrix formation       ....      20.076 sec  ( 94.4%)
Diagonalization             ....       0.215 sec  (  1.0%)
Density matrix formation    ....       0.033 sec  (  0.2%)
Population analysis         ....       0.026 sec  (  0.1%)
Initial guess               ....       0.126 sec  (  0.6%)
Orbital Transformation      ....       0.000 sec  (  0.0%)
Orbital Orthonormalization  ....       0.000 sec  (  0.0%)
DIIS solution               ....       0.113 sec  (  0.5%)
SOSCF solution              ....       0.223 sec  (  1.0%)

Maximum memory used throughout the entire SCF-calculation: 239.4 MB

-------------------------   --------------------
FINAL SINGLE POINT ENERGY      -817.830110275369
-------------------------   --------------------


                            ***************************************
                            *     ORCA property calculations      *
                            ***************************************

                                    ---------------------
                                    Active property flags
                                    ---------------------
   (+) Dipole Moment


------------------------------------------------------------------------------
                       ORCA ELECTRIC PROPERTIES CALCULATION
------------------------------------------------------------------------------

Dipole Moment Calculation                       ... on
Quadrupole Moment Calculation                   ... off
Polarizability Calculation                      ... off
GBWName                                         ... ./ZINC000000000148/ZINC000000000148.gbw
Electron density                                ... ./ZINC000000000148/ZINC000000000148.scfp
The origin for moment calculation is the CENTER OF MASS  = ( 1.184114,  0.059621 -0.381069)

-------------
DIPOLE MOMENT
-------------
                                X             Y             Z
Electronic contribution:     25.46937       0.34118      -3.42845
Nuclear contribution   :    -25.16394      -0.51728       2.68036
                        -----------------------------------------
Total Dipole Moment    :      0.30543      -0.17610      -0.74809
                        -----------------------------------------
Magnitude (a.u.)       :      0.82700
Magnitude (Debye)      :      2.10207



--------------------
Rotational spectrum 
--------------------
 
Rotational constants in cm-1:     0.014843     0.008554     0.007233 
Rotational constants in MHz :   444.985455   256.434277   216.844683 

 Dipole components along the rotational axes: 
x,y,z [a.u.] :     0.421386    -0.587340    -0.401744 
x,y,z [Debye]:     1.071078    -1.492900    -1.021152 

 

Timings for individual modules:

Sum of individual times         ...       21.928 sec (=   0.365 min)
GTO integral calculation        ...        0.412 sec (=   0.007 min)   1.9 %
SCF iterations                  ...       21.516 sec (=   0.359 min)  98.1 %
                             ****ORCA TERMINATED NORMALLY****
TOTAL RUN TIME: 0 days 0 hours 0 minutes 22 seconds 294 msec
