
                                 *****************
                                 * O   R   C   A *
                                 *****************

                                            #,                                       
                                            ###                                      
                                            ####                                     
                                            #####                                    
                                            ######                                   
                                           ########,                                 
                                     ,,################,,,,,                         
                               ,,#################################,,                 
                          ,,##########################################,,             
                       ,#########################################, ''#####,          
                    ,#############################################,,   '####,        
                  ,##################################################,,,,####,       
                ,###########''''           ''''###############################       
              ,#####''   ,,,,##########,,,,          '''####'''          '####       
            ,##' ,,,,###########################,,,                        '##       
           ' ,,###''''                  '''############,,,                           
         ,,##''                                '''############,,,,        ,,,,,,###''
      ,#''                                            '''#######################'''  
     '                                                          ''''####''''         
             ,#######,   #######,   ,#######,      ##                                
            ,#'     '#,  ##    ##  ,#'     '#,    #''#        ######   ,####,        
            ##       ##  ##   ,#'  ##            #'  '#       #        #'  '#        
            ##       ##  #######   ##           ,######,      #####,   #    #        
            '#,     ,#'  ##    ##  '#,     ,#' ,#      #,         ##   #,  ,#        
             '#######'   ##     ##  '#######'  #'      '#     #####' # '####'        



                  #######################################################
                  #                        -***-                        #
                  #          Department of theory and spectroscopy      #
                  #    Directorship and core code : Frank Neese         #
                  #        Max Planck Institute fuer Kohlenforschung    #
                  #                Kaiser Wilhelm Platz 1               #
                  #                 D-45470 Muelheim/Ruhr               #
                  #                      Germany                        #
                  #                                                     #
                  #                  All rights reserved                #
                  #                        -***-                        #
                  #######################################################


                         Program Version 5.0.3 -  RELEASE  -


 With contributions from (in alphabetic order):
   Daniel Aravena         : Magnetic Suceptibility
   Michael Atanasov       : Ab Initio Ligand Field Theory (pilot matlab implementation)
   Alexander A. Auer      : GIAO ZORA, VPT2 properties, NMR spectrum
   Ute Becker             : Parallelization
   Giovanni Bistoni       : ED, misc. LED, open-shell LED, HFLD
   Martin Brehm           : Molecular dynamics
   Dmytro Bykov           : SCF Hessian
   Vijay G. Chilkuri      : MRCI spin determinant printing, contributions to CSF-ICE
   Dipayan Datta          : RHF DLPNO-CCSD density
   Achintya Kumar Dutta   : EOM-CC, STEOM-CC
   Dmitry Ganyushin       : Spin-Orbit,Spin-Spin,Magnetic field MRCI
   Miquel Garcia          : C-PCM and meta-GGA Hessian, CC/C-PCM, Gaussian charge scheme
   Yang Guo               : DLPNO-NEVPT2, F12-NEVPT2, CIM, IAO-localization
   Andreas Hansen         : Spin unrestricted coupled pair/coupled cluster methods
   Benjamin Helmich-Paris : MC-RPA, TRAH-SCF, COSX integrals
   Lee Huntington         : MR-EOM, pCC
   Robert Izsak           : Overlap fitted RIJCOSX, COSX-SCS-MP3, EOM
   Marcus Kettner         : VPT2
   Christian Kollmar      : KDIIS, OOCD, Brueckner-CCSD(T), CCSD density, CASPT2, CASPT2-K
   Simone Kossmann        : Meta GGA functionals, TD-DFT gradient, OOMP2, MP2 Hessian
   Martin Krupicka        : Initial AUTO-CI
   Lucas Lang             : DCDCAS
   Marvin Lechner         : AUTO-CI (C++ implementation), FIC-MRCC
   Dagmar Lenk            : GEPOL surface, SMD
   Dimitrios Liakos       : Extrapolation schemes; Compound Job, initial MDCI parallelization
   Dimitrios Manganas     : Further ROCIS development; embedding schemes
   Dimitrios Pantazis     : SARC Basis sets
   Anastasios Papadopoulos: AUTO-CI, single reference methods and gradients
   Taras Petrenko         : DFT Hessian,TD-DFT gradient, ASA, ECA, R-Raman, ABS, FL, XAS/XES, NRVS
   Peter Pinski           : DLPNO-MP2, DLPNO-MP2 Gradient
   Christoph Reimann      : Effective Core Potentials
   Marius Retegan         : Local ZFS, SOC
   Christoph Riplinger    : Optimizer, TS searches, QM/MM, DLPNO-CCSD(T), (RO)-DLPNO pert. Triples
   Tobias Risthaus        : Range-separated hybrids, TD-DFT gradient, RPA, STAB
   Michael Roemelt        : Original ROCIS implementation
   Masaaki Saitow         : Open-shell DLPNO-CCSD energy and density
   Barbara Sandhoefer     : DKH picture change effects
   Avijit Sen             : IP-ROCIS
   Kantharuban Sivalingam : CASSCF convergence, NEVPT2, FIC-MRCI
   Bernardo de Souza      : ESD, SOC TD-DFT
   Georgi Stoychev        : AutoAux, RI-MP2 NMR, DLPNO-MP2 response
   Willem Van den Heuvel  : Paramagnetic NMR
   Boris Wezisla          : Elementary symmetry handling
   Frank Wennmohs         : Technical directorship


 We gratefully acknowledge several colleagues who have allowed us to
 interface, adapt or use parts of their codes:
   Stefan Grimme, W. Hujo, H. Kruse, P. Pracht,  : VdW corrections, initial TS optimization,
                  C. Bannwarth, S. Ehlert          DFT functionals, gCP, sTDA/sTD-DF
   Ed Valeev, F. Pavosevic, A. Kumar             : LibInt (2-el integral package), F12 methods
   Garnet Chan, S. Sharma, J. Yang, R. Olivares  : DMRG
   Ulf Ekstrom                                   : XCFun DFT Library
   Mihaly Kallay                                 : mrcc  (arbitrary order and MRCC methods)
   Jiri Pittner, Ondrej Demel                    : Mk-CCSD
   Frank Weinhold                                : gennbo (NPA and NBO analysis)
   Christopher J. Cramer and Donald G. Truhlar   : smd solvation model
   Lars Goerigk                                  : TD-DFT with DH, B97 family of functionals
   V. Asgeirsson, H. Jonsson                     : NEB implementation
   FAccTs GmbH                                   : IRC, NEB, NEB-TS, DLPNO-Multilevel, CI-OPT
                                                   MM, QMMM, 2- and 3-layer-ONIOM, Crystal-QMMM,
                                                   LR-CPCM, SF, NACMEs, symmetry and pop. for TD-DFT,
                                                   nearIR, NL-DFT gradient (VV10), updates on ESD,
                                                   ML-optimized integration grids
   S Lehtola, MJT Oliveira, MAL Marques          : LibXC Library
   Liviu Ungur et al                             : ANISO software


 Your calculation uses the libint2 library for the computation of 2-el integrals
 For citations please refer to: http://libint.valeyev.net

 Your ORCA version has been built with support for libXC version: 5.1.0
 For citations please refer to: https://tddft.org/programs/libxc/

 This ORCA versions uses:
   CBLAS   interface :  Fast vector & matrix operations
   LAPACKE interface :  Fast linear algebra routines
   SCALAPACK package :  Parallel linear algebra routines
   Shared memory     :  Shared parallel matrices
   BLAS/LAPACK       :  OpenBLAS 0.3.15  USE64BITINT DYNAMIC_ARCH NO_AFFINITY Zen SINGLE_THREADED
        Core in use  :  Zen
   Copyright (c) 2011-2014, The OpenBLAS Project


================================================================================

----- Orbital basis set information -----
Your calculation utilizes the basis: def2-SVP
   F. Weigend and R. Ahlrichs, Phys. Chem. Chem. Phys. 7, 3297 (2005).

================================================================================
                                        WARNINGS
                       Please study these warnings very carefully!
================================================================================


INFO   : the flag for use of the SHARK integral package has been found!

================================================================================
                                       INPUT FILE
================================================================================
NAME = ./ZINC000000000188/ZINC000000000188.inp
|  1> !RHF def2-SVP TightSCF PAL16 
|  2> *xyz 0 1
|  3> C 0.07185265014237366 -1.9461093530005131 -1.5902999034789385
|  4> C 0.6787757834039418 -0.5934904131029541 -1.2010924672845855
|  5> C 2.0587514710877075 -0.44186445197112423 -1.8796749516370745
|  6> N 2.6495145145985908 0.8926102333056432 -1.6744185529161961
|  7> C 2.057279715190701 1.8841764284702482 -2.5825361189843847
|  8> C 4.101004368846997 0.8449219121682927 -1.8993712190034555
|  9> C 0.8196470688712635 -0.4665845921827282 0.3371479226711543
| 10> N -0.4909014152976736 -0.2877399241791496 1.021840578653783
| 11> C -1.0607482678021307 -1.4424441222727402 1.620543678867498
| 12> C -0.2591623147113158 -2.3870336564791055 2.287044932972615
| 13> C -0.7995951950636779 -3.547468011322688 2.8534659144809713
| 14> C -2.1646540403585486 -3.781444909601254 2.7990724624392618
| 15> C -2.988815781833225 -2.836616389390818 2.2062394570811827
| 16> C -2.4521878230569025 -1.670029577095571 1.6303024901649377
| 17> S -3.616956062304733 -0.5446635436164535 0.9092504687854114
| 18> C -2.619371964708166 0.912285187025204 0.665822821623946
| 19> C -3.3144231144097014 2.0965247892499446 0.3631504888650665
| 20> C -2.631602496917066 3.285015113315563 0.11389136938583863
| 21> C -1.2411407315833471 3.2996236985910805 0.17174890419313407
| 22> C -0.5244331649581186 4.506590471071028 -0.1003176989851242
| 23> N 0.05459212100401935 5.473984797373023 -0.3459375745281641
| 24> C -0.5442766710250353 2.121689666581325 0.4733884035395677
| 25> C -1.2113634740157608 0.8978453758650782 0.7124533646981664
| 26> H 0.0015185978339757808 -2.0413062955232086 -2.6788662415806317
| 27> H 0.678982724522155 -2.7784849433256587 -1.217028476807162
| 28> H -0.9400761397590045 -2.055837258086967 -1.1913986840344215
| 29> H 0.006401515868715551 0.17793979611234034 -1.589617243490727
| 30> H 2.722187310189245 -1.209750885338842 -1.4527103090209996
| 31> H 1.983609398716921 -0.664295923034626 -2.9538363720714114
| 32> H 2.216991543574485 1.6248289606282387 -3.636426537360351
| 33> H 0.9766460044920365 1.9907391730139983 -2.4164864654527523
| 34> H 2.493276383425137 2.8757887694660087 -2.401842131221302
| 35> H 4.550764181727493 1.8335198982717196 -1.740751360730285
| 36> H 4.5791695984607985 0.16678117779610485 -1.1883648925113246
| 37> H 4.346740063419685 0.5158673869100555 -2.9141995672156225
| 38> H 1.483541693443508 0.35858785197031046 0.6156716672945888
| 39> H 1.366789358168691 -1.3490725866951112 0.6853008627996302
| 40> H 0.8093531679379514 -2.2199062403619076 2.416363286209365
| 41> H -0.14787640372414274 -4.263138787763202 3.336365826633667
| 42> H -2.5901164715995177 -4.681584637285472 3.2344688878313583
| 43> H -4.058585019243048 -3.0171976260571265 2.1906885406337735
| 44> H -4.402420571853271 2.094795670910133 0.31767396370471634
| 45> H -3.1925001417987344 4.1880090733951985 -0.11983594378341769
| 46> H 0.5438180310696242 2.1839386962142626 0.537302211968745
| 47> *
| 48> 
| 49>                          ****END OF INPUT****
================================================================================

                       ****************************
                       * Single Point Calculation *
                       ****************************

---------------------------------
CARTESIAN COORDINATES (ANGSTROEM)
---------------------------------
  C      0.071853   -1.946109   -1.590300
  C      0.678776   -0.593490   -1.201092
  C      2.058751   -0.441864   -1.879675
  N      2.649515    0.892610   -1.674419
  C      2.057280    1.884176   -2.582536
  C      4.101004    0.844922   -1.899371
  C      0.819647   -0.466585    0.337148
  N     -0.490901   -0.287740    1.021841
  C     -1.060748   -1.442444    1.620544
  C     -0.259162   -2.387034    2.287045
  C     -0.799595   -3.547468    2.853466
  C     -2.164654   -3.781445    2.799072
  C     -2.988816   -2.836616    2.206239
  C     -2.452188   -1.670030    1.630302
  S     -3.616956   -0.544664    0.909250
  C     -2.619372    0.912285    0.665823
  C     -3.314423    2.096525    0.363150
  C     -2.631602    3.285015    0.113891
  C     -1.241141    3.299624    0.171749
  C     -0.524433    4.506590   -0.100318
  N      0.054592    5.473985   -0.345938
  C     -0.544277    2.121690    0.473388
  C     -1.211363    0.897845    0.712453
  H      0.001519   -2.041306   -2.678866
  H      0.678983   -2.778485   -1.217028
  H     -0.940076   -2.055837   -1.191399
  H      0.006402    0.177940   -1.589617
  H      2.722187   -1.209751   -1.452710
  H      1.983609   -0.664296   -2.953836
  H      2.216992    1.624829   -3.636427
  H      0.976646    1.990739   -2.416486
  H      2.493276    2.875789   -2.401842
  H      4.550764    1.833520   -1.740751
  H      4.579170    0.166781   -1.188365
  H      4.346740    0.515867   -2.914200
  H      1.483542    0.358588    0.615672
  H      1.366789   -1.349073    0.685301
  H      0.809353   -2.219906    2.416363
  H     -0.147876   -4.263139    3.336366
  H     -2.590116   -4.681585    3.234469
  H     -4.058585   -3.017198    2.190689
  H     -4.402421    2.094796    0.317674
  H     -3.192500    4.188009   -0.119836
  H      0.543818    2.183939    0.537302

----------------------------
CARTESIAN COORDINATES (A.U.)
----------------------------
  NO LB      ZA    FRAG     MASS         X           Y           Z
   0 C     6.0000    0    12.011    0.135782   -3.677614   -3.005231
   1 C     6.0000    0    12.011    1.282700   -1.121534   -2.269736
   2 C     6.0000    0    12.011    3.890476   -0.835003   -3.552071
   3 N     7.0000    0    14.007    5.006857    1.686789   -3.164192
   4 C     6.0000    0    12.011    3.887695    3.560577   -4.880286
   5 C     6.0000    0    12.011    7.749775    1.596671   -3.589291
   6 C     6.0000    0    12.011    1.548908   -0.881717    0.637117
   7 N     7.0000    0    14.007   -0.927669   -0.543750    1.930999
   8 C     6.0000    0    12.011   -2.004524   -2.725824    3.062384
   9 C     6.0000    0    12.011   -0.489746   -4.510840    4.321889
  10 C     6.0000    0    12.011   -1.511016   -6.703743    5.392269
  11 C     6.0000    0    12.011   -4.090603   -7.145895    5.289480
  12 C     6.0000    0    12.011   -5.648043   -5.360428    4.169188
  13 C     6.0000    0    12.011   -4.633963   -3.155899    3.080825
  14 S    16.0000    0    32.060   -6.835056   -1.029265    1.718234
  15 C     6.0000    0    12.011   -4.949896    1.723969    1.258223
  16 C     6.0000    0    12.011   -6.263352    3.961858    0.686255
  17 C     6.0000    0    12.011   -4.973008    6.207779    0.215223
  18 C     6.0000    0    12.011   -2.345416    6.235385    0.324558
  19 C     6.0000    0    12.011   -0.991035    8.516222   -0.189573
  20 N     7.0000    0    14.007    0.103164   10.344332   -0.653727
  21 C     6.0000    0    12.011   -1.028534    4.009412    0.894574
  22 C     6.0000    0    12.011   -2.289145    1.696682    1.346342
  23 H     1.0000    0     1.008    0.002870   -3.857510   -5.062324
  24 H     1.0000    0     1.008    1.283091   -5.250576   -2.299851
  25 H     1.0000    0     1.008   -1.776486   -3.884969   -2.251417
  26 H     1.0000    0     1.008    0.012097    0.336257   -3.003941
  27 H     1.0000    0     1.008    5.144189   -2.286098   -2.745225
  28 H     1.0000    0     1.008    3.748479   -1.255337   -5.581942
  29 H     1.0000    0     1.008    4.189507    3.070482   -6.871850
  30 H     1.0000    0     1.008    1.845593    3.761952   -4.566498
  31 H     1.0000    0     1.008    4.711610    5.434453   -4.538824
  32 H     1.0000    0     1.008    8.599698    3.464850   -3.289543
  33 H     1.0000    0     1.008    8.653376    0.315171   -2.245684
  34 H     1.0000    0     1.008    8.214148    0.974848   -5.507039
  35 H     1.0000    0     1.008    2.803488    0.677633    1.163451
  36 H     1.0000    0     1.008    2.582858   -2.549378    1.295031
  37 H     1.0000    0     1.008    1.529456   -4.195015    4.566265
  38 H     1.0000    0     1.008   -0.279446   -8.056165    6.304818
  39 H     1.0000    0     1.008   -4.894611   -8.846913    6.112260
  40 H     1.0000    0     1.008   -7.669614   -5.701677    4.139801
  41 H     1.0000    0     1.008   -8.319369    3.958590    0.600317
  42 H     1.0000    0     1.008   -6.032951    7.914190   -0.226457
  43 H     1.0000    0     1.008    1.027667    4.127046    1.015354

--------------------------------
INTERNAL COORDINATES (ANGSTROEM)
--------------------------------
 C      0   0   0     0.000000000000     0.00000000     0.00000000
 C      1   0   0     1.532780517441     0.00000000     0.00000000
 C      2   1   0     1.545249985846   109.18954296     0.00000000
 N      3   2   1     1.473755016425   112.68540299   173.86621565
 C      4   3   2     1.469225336980   111.31171989   280.89730648
 C      4   3   2     1.469592009688   110.19496767   159.85439932
 C      2   1   3     1.549881706371   111.11626623   238.13908258
 N      7   2   1     1.489404840125   112.71274430   287.92348629
 C      8   7   2     1.420039655295   116.69729858    99.91611915
 C      9   8   7     1.406774093466   121.13721824    38.73114209
 C     10   9   8     1.399824388400   121.89420425   181.64074785
 C     11  10   9     1.386033725301   120.28431924   358.38068286
 C     12  11  10     1.386864982958   119.14617660   358.43456887
 C     13  12  11     1.407337111932   120.86811308     1.81186215
 S     14  13  12     1.772864850462   116.23853025   180.10878379
 C     15  14  13     1.782450744032   101.92883319   167.10812610
 C     16  15  14     1.406104575484   116.17788042   192.94435151
 C     17  16  15     1.393155897491   120.97905191   181.94559570
 C     18  17  16     1.391741652015   119.41889080   359.70767857
 C     19  18  17     1.429845712828   120.11501688   179.10076929
 N     20  19  18     1.153885257557   178.66429140   270.87154277
 C     19  18  17     1.401475825775   119.79536671     0.27282995
 C     16  15  14     1.408854437320   123.12285271    15.52511083
 H      1   2   3     1.094982195850   110.76825925   303.48654247
 H      1   2   3     1.095804548519   111.37320064    63.64305231
 H      1   2   3     1.093234774356   111.24979063   184.44218663
 H      2   1   3     1.094597288988   106.77231552   117.56082621
 H      3   2   1     1.100952084879   107.42192128   294.71962495
 H      3   2   1     1.099520280627   110.37304868    50.08622156
 H      5   4   3     1.097020506256   112.05865441   299.56335895
 H      5   4   3     1.098497757240   111.62784045    61.03469867
 H      5   4   3     1.098197817672   110.34410774   178.81399633
 H      6   4   3     1.097620210660   110.69321447   180.45062697
 H      6   4   3     1.092724502671   110.65491489   298.39942530
 H      6   4   3     1.094778282811   111.92194271    59.63143767
 H      7   2   1     1.095098676579   111.66795887   164.78798516
 H      7   2   1     1.095153055475   107.15422261    52.80828838
 H     10   9   8     1.089210790602   120.81050556     4.11997515
 H     11  10   9     1.081718248156   119.76850572   178.45277321
 H     12  11  10     1.086664555876   120.64490526   179.83298045
 H     13  12  11     1.085015039226   118.59752065   181.51444022
 H     17  16  15     1.088948837914   120.10127607     1.77262318
 H     18  17  16     1.088408341063   119.57786551   179.89888964
 H     22  19  18     1.091746306302   117.40321842   181.74580511

---------------------------
INTERNAL COORDINATES (A.U.)
---------------------------
 C      0   0   0     0.000000000000     0.00000000     0.00000000
 C      1   0   0     2.896535401374     0.00000000     0.00000000
 C      2   1   0     2.920099281695   109.18954296     0.00000000
 N      3   2   1     2.784993369536   112.68540299   173.86621565
 C      4   3   2     2.776433515911   111.31171989   280.89730648
 C      4   3   2     2.777126426909   110.19496767   159.85439932
 C      2   1   3     2.928851965016   111.11626623   238.13908258
 N      7   2   1     2.814567250373   112.71274430   287.92348629
 C      8   7   2     2.683486047815   116.69729858    99.91611915
 C      9   8   7     2.658417768947   121.13721824    38.73114209
 C     10   9   8     2.645284729660   121.89420425   181.64074785
 C     11  10   9     2.619224153197   120.28431924   358.38068286
 C     12  11  10     2.620795002516   119.14617660   358.43456887
 C     13  12  11     2.659481719656   120.86811308     1.81186215
 S     14  13  12     3.350229039829   116.23853025   180.10878379
 C     15  14  13     3.368343753424   101.92883319   167.10812610
 C     16  15  14     2.657152563318   116.17788042   192.94435151
 C     17  16  15     2.632683108115   120.97905191   181.94559570
 C     18  17  16     2.630010571479   119.41889080   359.70767857
 C     19  18  17     2.702016811007   120.11501688   179.10076929
 N     20  19  18     2.180527126751   178.66429140   270.87154277
 C     19  18  17     2.648405494025   119.79536671     0.27282995
 C     16  15  14     2.662349049094   123.12285271    15.52511083
 H      1   2   3     2.069216471676   110.76825925   303.48654247
 H      1   2   3     2.070770493006   111.37320064    63.64305231
 H      1   2   3     2.065914323611   111.24979063   184.44218663
 H      2   1   3     2.068489103120   106.77231552   117.56082621
 H      3   2   1     2.080497926990   107.42192128   294.71962495
 H      3   2   1     2.077792209076   110.37304868    50.08622156
 H      5   4   3     2.073068320120   112.05865441   299.56335895
 H      5   4   3     2.075859919910   111.62784045    61.03469867
 H      5   4   3     2.075293116271   110.34410774   178.81399633
 H      6   4   3     2.074201597204   110.69321447   180.45062697
 H      6   4   3     2.064950049874   110.65491489   298.39942530
 H      6   4   3     2.068831131878   111.92194271    59.63143767
 H      7   2   1     2.069436588353   111.66795887   164.78798516
 H      7   2   1     2.069539349575   107.15422261    52.80828838
 H     10   9   8     2.058310096349   120.81050556     4.11997515
 H     11  10   9     2.044151243079   119.76850572   178.45277321
 H     12  11  10     2.053498410045   120.64490526   179.83298045
 H     13  12  11     2.050381275323   118.59752065   181.51444022
 H     17  16  15     2.057815077510   120.10127607     1.77262318
 H     18  17  16     2.056793686485   119.57786551   179.89888964
 H     22  19  18     2.063101526631   117.40321842   181.74580511

---------------------
BASIS SET INFORMATION
---------------------
There are 4 groups of distinct atoms

 Group   1 Type C   : 7s4p1d contracted to 3s2p1d pattern {511/31/1}
 Group   2 Type N   : 7s4p1d contracted to 3s2p1d pattern {511/31/1}
 Group   3 Type S   : 10s7p1d contracted to 4s3p1d pattern {5311/511/1}
 Group   4 Type H   : 4s1p contracted to 2s1p pattern {31/1}

Atom   0C    basis set group =>   1
Atom   1C    basis set group =>   1
Atom   2C    basis set group =>   1
Atom   3N    basis set group =>   2
Atom   4C    basis set group =>   1
Atom   5C    basis set group =>   1
Atom   6C    basis set group =>   1
Atom   7N    basis set group =>   2
Atom   8C    basis set group =>   1
Atom   9C    basis set group =>   1
Atom  10C    basis set group =>   1
Atom  11C    basis set group =>   1
Atom  12C    basis set group =>   1
Atom  13C    basis set group =>   1
Atom  14S    basis set group =>   3
Atom  15C    basis set group =>   1
Atom  16C    basis set group =>   1
Atom  17C    basis set group =>   1
Atom  18C    basis set group =>   1
Atom  19C    basis set group =>   1
Atom  20N    basis set group =>   2
Atom  21C    basis set group =>   1
Atom  22C    basis set group =>   1
Atom  23H    basis set group =>   4
Atom  24H    basis set group =>   4
Atom  25H    basis set group =>   4
Atom  26H    basis set group =>   4
Atom  27H    basis set group =>   4
Atom  28H    basis set group =>   4
Atom  29H    basis set group =>   4
Atom  30H    basis set group =>   4
Atom  31H    basis set group =>   4
Atom  32H    basis set group =>   4
Atom  33H    basis set group =>   4
Atom  34H    basis set group =>   4
Atom  35H    basis set group =>   4
Atom  36H    basis set group =>   4
Atom  37H    basis set group =>   4
Atom  38H    basis set group =>   4
Atom  39H    basis set group =>   4
Atom  40H    basis set group =>   4
Atom  41H    basis set group =>   4
Atom  42H    basis set group =>   4
Atom  43H    basis set group =>   4


           ************************************************************
           *        Program running with 16 parallel MPI-processes    *
           *              working on a common directory               *
           ************************************************************
------------------------------------------------------------------------------
                           ORCA GTO INTEGRAL CALCULATION
------------------------------------------------------------------------------
------------------------------------------------------------------------------
                   ___                                                        
                  /   \      - P O W E R E D   B Y -                         
                 /     \                                                     
                 |  |  |   _    _      __       _____    __    __             
                 |  |  |  | |  | |    /  \     |  _  \  |  |  /  |          
                  \  \/   | |  | |   /    \    | | | |  |  | /  /          
                 / \  \   | |__| |  /  /\  \   | |_| |  |  |/  /          
                |  |  |   |  __  | /  /__\  \  |    /   |      \           
                |  |  |   | |  | | |   __   |  |    \   |  |\   \          
                \     /   | |  | | |  |  |  |  | |\  \  |  | \   \       
                 \___/    |_|  |_| |__|  |__|  |_| \__\ |__|  \__/        
                                                                              
                      - O R C A' S   B I G   F R I E N D -                    
                                      &                                       
                       - I N T E G R A L  F E E D E R -                       
                                                                              
 v1 FN, 2020, v2 2021                                                         
------------------------------------------------------------------------------


Reading SHARK input file ./ZINC000000000188/ZINC000000000188.SHARKINP.tmp ... ok
----------------------
SHARK INTEGRAL PACKAGE
----------------------

Number of atoms                             ...     44
Number of basis functions                   ...    431
Number of shells                            ...    203
Maximum angular momentum                    ...      2
Integral batch strategy                     ... SHARK/LIBINT Hybrid
RI-J (if used) integral strategy            ... SPLIT-RIJ (Revised 2003 algorithm where possible)
Printlevel                                  ...      1
Contraction scheme used                     ... SEGMENTED contraction
Coulomb Range Separation                    ... NOT USED
Exchange Range Separation                   ... NOT USED
Finite Nucleus Model                        ... NOT USED
Auxiliary Coulomb fitting basis             ... NOT available
Auxiliary J/K fitting basis                 ... NOT available
Auxiliary Correlation fitting basis         ... NOT available
Auxiliary 'external' fitting basis          ... NOT available
Integral threshold                          ...     2.500000e-11
Primitive cut-off                           ...     2.500000e-12
Primitive pair pre-selection threshold      ...     2.500000e-12

Calculating pre-screening integrals         ... done (  0.0 sec) Dimension = 203
Organizing shell pair data                  ... done (  0.1 sec)
Shell pair information
Total number of shell pairs                 ...     20706
Shell pairs after pre-screening             ...     15438
Total number of primitive shell pairs       ...     75450
Primitive shell pairs kept                  ...     35551
          la=0 lb=0:   4887 shell pairs
          la=1 lb=0:   5783 shell pairs
          la=1 lb=1:   1782 shell pairs
          la=2 lb=0:   1774 shell pairs
          la=2 lb=1:   1053 shell pairs
          la=2 lb=2:    159 shell pairs

Calculating one electron integrals          ... done (  0.0 sec)
Calculating Nuclear repulsion               ... done (  0.0 sec) ENN=   2028.121621453846 Eh

SHARK setup successfully completed in   0.2 seconds

Maximum memory used throughout the entire GTOINT-calculation: 22.9 MB


           ************************************************************
           *        Program running with 16 parallel MPI-processes    *
           *              working on a common directory               *
           ************************************************************
-------------------------------------------------------------------------------
                                 ORCA SCF
-------------------------------------------------------------------------------

------------
SCF SETTINGS
------------
Hamiltonian:
 Ab initio Hamiltonian  Method          .... Hartree-Fock(GTOs)


General Settings:
 Integral files         IntName         .... ./ZINC000000000188/ZINC000000000188
 Hartree-Fock type      HFTyp           .... RHF
 Total Charge           Charge          ....    0
 Multiplicity           Mult            ....    1
 Number of Electrons    NEL             ....  172
 Basis Dimension        Dim             ....  431
 Nuclear Repulsion      ENuc            ....   2028.1216214538 Eh

Convergence Acceleration:
 DIIS                   CNVDIIS         .... on
   Start iteration      DIISMaxIt       ....    12
   Startup error        DIISStart       ....  0.200000
   # of expansion vecs  DIISMaxEq       ....     5
   Bias factor          DIISBfac        ....   1.050
   Max. coefficient     DIISMaxC        ....  10.000
 Trust-Rad. Augm. Hess. CNVTRAH         .... auto
   Auto Start mean grad. ratio tolernc. ....  1.125000
   Auto Start start iteration           ....    20
   Auto Start num. interpolation iter.  ....    10
   Max. Number of Micro iterations      ....    16
   Max. Number of Macro iterations      .... Maxiter - #DIIS iter
   Number of Davidson start vectors     ....     2
   Converg. threshold I  (grad. norm)   ....   1.000e-05
   Converg. threshold II (energy diff.) ....   1.000e-08
   Grad. Scal. Fac. for Micro threshold ....   0.100
   Minimum threshold for Micro iter.    ....   0.010
   NR start threshold (gradient norm)   ....   0.001
   Initial trust radius                 ....   0.400
   Minimum AH scaling param. (alpha)    ....   1.000
   Maximum AH scaling param. (alpha)    .... 1000.000
   Orbital update algorithm             .... Taylor
   White noise on init. David. guess    .... on
   Maximum white noise                  ....   0.010
   Quad. conv. algorithm                .... NR
 SOSCF                  CNVSOSCF        .... on
   Start iteration      SOSCFMaxIt      ....   150
   Startup grad/error   SOSCFStart      ....  0.003300
 Level Shifting         CNVShift        .... on
   Level shift para.    LevelShift      ....    0.2500
   Turn off err/grad.   ShiftErr        ....    0.0010
 Zerner damping         CNVZerner       .... off
 Static damping         CNVDamp         .... on
   Fraction old density DampFac         ....    0.7000
   Max. Damping (<1)    DampMax         ....    0.9800
   Min. Damping (>=0)   DampMin         ....    0.0000
   Turn off err/grad.   DampErr         ....    0.1000
 Fernandez-Rico         CNVRico         .... off

SCF Procedure:
 Maximum # iterations   MaxIter         ....   125
 SCF integral mode      SCFMode         .... Direct
   Integral package                     .... SHARK and LIBINT hybrid scheme
 Reset frequency        DirectResetFreq ....    20
 Integral Threshold     Thresh          ....  2.500e-11 Eh
 Primitive CutOff       TCut            ....  2.500e-12 Eh

Convergence Tolerance:
 Convergence Check Mode ConvCheckMode   .... Total+1el-Energy
 Convergence forced     ConvForced      .... 0
 Energy Change          TolE            ....  1.000e-08 Eh
 1-El. energy change                    ....  1.000e-05 Eh
 Orbital Gradient       TolG            ....  1.000e-05
 Orbital Rotation angle TolX            ....  1.000e-05
 DIIS Error             TolErr          ....  5.000e-07


Diagonalization of the overlap matrix:
Smallest eigenvalue                        ... 2.209e-04
Time for diagonalization                   ...    0.024 sec
Threshold for overlap eigenvalues          ... 1.000e-08
Number of eigenvalues below threshold      ... 0
Time for construction of square roots      ...    0.013 sec
Total time needed                          ...    0.039 sec

Time for model grid setup =    0.183 sec

------------------------------
INITIAL GUESS: MODEL POTENTIAL
------------------------------
Loading Hartree-Fock densities                     ... done
Calculating cut-offs                               ... done
Initializing the effective Hamiltonian             ... done
Setting up the integral package (SHARK)            ... done
Starting the Coulomb interaction                   ... done (   0.1 sec)
Reading the grid                                   ... done
Mapping shells                                     ... done
Starting the XC term evaluation                    ... done (   0.0 sec)
Transforming the Hamiltonian                       ... done (   0.0 sec)
Diagonalizing the Hamiltonian                      ... done (   0.0 sec)
Back transforming the eigenvectors                 ... done (   0.0 sec)
Now organizing SCF variables                       ... done
                      ------------------
                      INITIAL GUESS DONE (   0.4 sec)
                      ------------------
--------------
SCF ITERATIONS
--------------
ITER       Energy         Delta-E        Max-DP      RMS-DP      [F,P]     Damp
               ***  Starting incremental Fock matrix formation  ***
  0  -1290.9762772501   0.000000000000 0.06744687  0.00173202  0.2242440 0.7000
  1  -1291.2486942922  -0.272417042068 0.04752559  0.00136538  0.1394550 0.7000
                               ***Turning on DIIS***
  2  -1291.4169607994  -0.168266507277 0.11136410  0.00318893  0.0793896 0.0000
  3  -1290.4396275454   0.977333254093 0.05232538  0.00069076  0.0443625 0.0000
  4  -1291.8102282403  -1.370600694987 0.01211689  0.00027605  0.0097783 0.0000
  5  -1291.7949487430   0.015279497294 0.00672120  0.00011712  0.0065990 0.0000
                      *** Initiating the SOSCF procedure ***
                           *** Shutting down DIIS ***
                      *** Re-Reading the Fockian *** 
                      *** Removing any level shift *** 
ITER      Energy       Delta-E        Grad      Rot      Max-DP    RMS-DP
  6  -1291.75971843   0.0352303117  0.002372  0.002372  0.003912  0.000062
               *** Restarting incremental Fock matrix formation ***
  7  -1291.77400319  -0.0142847579  0.001452  0.003894  0.003112  0.000042
  8  -1291.77406019  -0.0000569997  0.000568  0.004027  0.003603  0.000054
  9  -1291.77408011  -0.0000199229  0.000325  0.000491  0.000486  0.000010
 10  -1291.77408414  -0.0000040232  0.000135  0.000222  0.000364  0.000004
 11  -1291.77408473  -0.0000005971  0.000071  0.000260  0.000121  0.000003
 12  -1291.77408491  -0.0000001755  0.000020  0.000089  0.000055  0.000001
 13  -1291.77408493  -0.0000000174  0.000012  0.000012  0.000025  0.000000
                  ***Gradient check signals convergence***
              ***Rediagonalizing the Fockian in SOSCF/NRSCF***

               *****************************************************
               *                     SUCCESS                       *
               *           SCF CONVERGED AFTER  14 CYCLES          *
               *****************************************************


----------------
TOTAL SCF ENERGY
----------------

Total Energy       :        -1291.77408493 Eh          -35150.95989 eV

Components:
Nuclear Repulsion  :         2028.12162145 Eh           55187.99502 eV
Electronic Energy  :        -3319.89570638 Eh          -90338.95491 eV
One Electron Energy:        -5794.26674855 Eh         -157670.01402 eV
Two Electron Energy:         2474.37104216 Eh           67331.05910 eV

Virial components:
Potential Energy   :        -2578.55250306 Eh          -70165.98078 eV
Kinetic Energy     :         1286.77841813 Eh           35015.02089 eV
Virial Ratio       :            2.00388231


---------------
SCF CONVERGENCE
---------------

  Last Energy change         ...   -1.6080e-09  Tolerance :   1.0000e-08
  Last MAX-Density change    ...    9.4393e-06  Tolerance :   1.0000e-07
  Last RMS-Density change    ...    1.6365e-07  Tolerance :   5.0000e-09
  Last Orbital Gradient      ...    1.5706e-06  Tolerance :   1.0000e-05
  Last Orbital Rotation      ...    5.9634e-06  Tolerance :   1.0000e-05

             **** THE GBW FILE WAS UPDATED (./ZINC000000000188/ZINC000000000188.gbw) ****
             **** DENSITY ./ZINC000000000188/ZINC000000000188.scfp WAS UPDATED ****
             **** ENERGY FILE WAS UPDATED (./ZINC000000000188/ZINC000000000188.en.tmp) ****
             **** THE GBW FILE WAS UPDATED (./ZINC000000000188/ZINC000000000188.gbw) ****
             **** DENSITY ./ZINC000000000188/ZINC000000000188.scfp WAS UPDATED ****
----------------
ORBITAL ENERGIES
----------------

  NO   OCC          E(Eh)            E(eV) 
   0   2.0000     -91.944558     -2501.9386 
   1   2.0000     -15.598230      -424.4494 
   2   2.0000     -15.573096      -423.7655 
   3   2.0000     -15.553223      -423.2247 
   4   2.0000     -11.316979      -307.9506 
   5   2.0000     -11.306444      -307.6640 
   6   2.0000     -11.297350      -307.4165 
   7   2.0000     -11.289075      -307.1914 
   8   2.0000     -11.282020      -306.9994 
   9   2.0000     -11.280887      -306.9686 
  10   2.0000     -11.274852      -306.8043 
  11   2.0000     -11.272170      -306.7313 
  12   2.0000     -11.268646      -306.6354 
  13   2.0000     -11.267491      -306.6040 
  14   2.0000     -11.260016      -306.4006 
  15   2.0000     -11.256510      -306.3052 
  16   2.0000     -11.254118      -306.2401 
  17   2.0000     -11.252362      -306.1923 
  18   2.0000     -11.251248      -306.1620 
  19   2.0000     -11.250121      -306.1313 
  20   2.0000     -11.243881      -305.9616 
  21   2.0000     -11.236785      -305.7685 
  22   2.0000     -11.224892      -305.4448 
  23   2.0000      -8.979913      -244.3559 
  24   2.0000      -6.667974      -181.4448 
  25   2.0000      -6.666339      -181.4003 
  26   2.0000      -6.664082      -181.3389 
  27   2.0000      -1.273768       -34.6610 
  28   2.0000      -1.215643       -33.0793 
  29   2.0000      -1.212523       -32.9944 
  30   2.0000      -1.170187       -31.8424 
  31   2.0000      -1.153330       -31.3837 
  32   2.0000      -1.092553       -29.7299 
  33   2.0000      -1.068381       -29.0721 
  34   2.0000      -1.041003       -28.3271 
  35   2.0000      -1.035463       -28.1764 
  36   2.0000      -1.000613       -27.2281 
  37   2.0000      -0.952770       -25.9262 
  38   2.0000      -0.942374       -25.6433 
  39   2.0000      -0.931804       -25.3557 
  40   2.0000      -0.925131       -25.1741 
  41   2.0000      -0.872954       -23.7543 
  42   2.0000      -0.848412       -23.0865 
  43   2.0000      -0.834287       -22.7021 
  44   2.0000      -0.814955       -22.1761 
  45   2.0000      -0.803115       -21.8539 
  46   2.0000      -0.774620       -21.0785 
  47   2.0000      -0.757123       -20.6024 
  48   2.0000      -0.716305       -19.4916 
  49   2.0000      -0.686446       -18.6792 
  50   2.0000      -0.671789       -18.2803 
  51   2.0000      -0.667647       -18.1676 
  52   2.0000      -0.660651       -17.9772 
  53   2.0000      -0.650750       -17.7078 
  54   2.0000      -0.645599       -17.5677 
  55   2.0000      -0.630449       -17.1554 
  56   2.0000      -0.621512       -16.9122 
  57   2.0000      -0.619874       -16.8676 
  58   2.0000      -0.613757       -16.7012 
  59   2.0000      -0.603867       -16.4320 
  60   2.0000      -0.576547       -15.6886 
  61   2.0000      -0.573793       -15.6137 
  62   2.0000      -0.567115       -15.4320 
  63   2.0000      -0.562136       -15.2965 
  64   2.0000      -0.553648       -15.0655 
  65   2.0000      -0.550611       -14.9829 
  66   2.0000      -0.546172       -14.8621 
  67   2.0000      -0.541415       -14.7327 
  68   2.0000      -0.528442       -14.3796 
  69   2.0000      -0.526925       -14.3384 
  70   2.0000      -0.516533       -14.0556 
  71   2.0000      -0.513226       -13.9656 
  72   2.0000      -0.511998       -13.9322 
  73   2.0000      -0.505076       -13.7438 
  74   2.0000      -0.493972       -13.4417 
  75   2.0000      -0.477408       -12.9909 
  76   2.0000      -0.470924       -12.8145 
  77   2.0000      -0.470006       -12.7895 
  78   2.0000      -0.466288       -12.6883 
  79   2.0000      -0.447528       -12.1779 
  80   2.0000      -0.430894       -11.7252 
  81   2.0000      -0.366412        -9.9706 
  82   2.0000      -0.362955        -9.8765 
  83   2.0000      -0.362202        -9.8560 
  84   2.0000      -0.324118        -8.8197 
  85   2.0000      -0.273198        -7.4341 
  86   0.0000       0.072056         1.9607 
  87   0.0000       0.100364         2.7310 
  88   0.0000       0.114695         3.1210 
  89   0.0000       0.139751         3.8028 
  90   0.0000       0.163441         4.4475 
  91   0.0000       0.166064         4.5188 
  92   0.0000       0.181438         4.9372 
  93   0.0000       0.188633         5.1330 
  94   0.0000       0.196195         5.3387 
  95   0.0000       0.203476         5.5369 
  96   0.0000       0.210640         5.7318 
  97   0.0000       0.216025         5.8783 
  98   0.0000       0.224173         6.1001 
  99   0.0000       0.233030         6.3411 
 100   0.0000       0.234936         6.3929 
 101   0.0000       0.236633         6.4391 
 102   0.0000       0.245450         6.6790 
 103   0.0000       0.250238         6.8093 
 104   0.0000       0.256944         6.9918 
 105   0.0000       0.263816         7.1788 
 106   0.0000       0.265003         7.2111 
 107   0.0000       0.274469         7.4687 
 108   0.0000       0.276248         7.5171 
 109   0.0000       0.278105         7.5676 
 110   0.0000       0.296284         8.0623 
 111   0.0000       0.300099         8.1661 
 112   0.0000       0.311853         8.4860 
 113   0.0000       0.317240         8.6325 
 114   0.0000       0.324823         8.8389 
 115   0.0000       0.329276         8.9600 
 116   0.0000       0.340842         9.2748 
 117   0.0000       0.343010         9.3338 
 118   0.0000       0.346055         9.4166 
 119   0.0000       0.365712         9.9515 
 120   0.0000       0.383321        10.4307 
 121   0.0000       0.384043        10.4503 
 122   0.0000       0.401465        10.9244 
 123   0.0000       0.410452        11.1690 
 124   0.0000       0.417327        11.3560 
 125   0.0000       0.420145        11.4327 
 126   0.0000       0.425475        11.5778 
 127   0.0000       0.434959        11.8358 
 128   0.0000       0.448860        12.2141 
 129   0.0000       0.455619        12.3980 
 130   0.0000       0.456096        12.4110 
 131   0.0000       0.457448        12.4478 
 132   0.0000       0.482311        13.1244 
 133   0.0000       0.492101        13.3907 
 134   0.0000       0.509598        13.8669 
 135   0.0000       0.518212        14.1013 
 136   0.0000       0.523254        14.2385 
 137   0.0000       0.540422        14.7056 
 138   0.0000       0.551490        15.0068 
 139   0.0000       0.563938        15.3455 
 140   0.0000       0.575691        15.6654 
 141   0.0000       0.582643        15.8545 
 142   0.0000       0.595454        16.2031 
 143   0.0000       0.604586        16.4516 
 144   0.0000       0.607974        16.5438 
 145   0.0000       0.617043        16.7906 
 146   0.0000       0.623090        16.9551 
 147   0.0000       0.631146        17.1744 
 148   0.0000       0.647974        17.6323 
 149   0.0000       0.654306        17.8046 
 150   0.0000       0.655336        17.8326 
 151   0.0000       0.666508        18.1366 
 152   0.0000       0.671981        18.2855 
 153   0.0000       0.677134        18.4257 
 154   0.0000       0.682729        18.5780 
 155   0.0000       0.694395        18.8955 
 156   0.0000       0.695398        18.9227 
 157   0.0000       0.706457        19.2237 
 158   0.0000       0.712494        19.3879 
 159   0.0000       0.724521        19.7152 
 160   0.0000       0.735833        20.0230 
 161   0.0000       0.744710        20.2646 
 162   0.0000       0.753676        20.5086 
 163   0.0000       0.758793        20.6478 
 164   0.0000       0.768789        20.9198 
 165   0.0000       0.775995        21.1159 
 166   0.0000       0.792143        21.5553 
 167   0.0000       0.796842        21.6832 
 168   0.0000       0.803823        21.8731 
 169   0.0000       0.809556        22.0292 
 170   0.0000       0.814581        22.1659 
 171   0.0000       0.822036        22.3687 
 172   0.0000       0.828018        22.5315 
 173   0.0000       0.832105        22.6427 
 174   0.0000       0.840154        22.8617 
 175   0.0000       0.845764        23.0144 
 176   0.0000       0.849510        23.1163 
 177   0.0000       0.857385        23.3306 
 178   0.0000       0.861647        23.4466 
 179   0.0000       0.867090        23.5947 
 180   0.0000       0.871450        23.7134 
 181   0.0000       0.875137        23.8137 
 182   0.0000       0.878427        23.9032 
 183   0.0000       0.884938        24.0804 
 184   0.0000       0.886957        24.1353 
 185   0.0000       0.891714        24.2648 
 186   0.0000       0.894176        24.3318 
 187   0.0000       0.895942        24.3798 
 188   0.0000       0.903894        24.5962 
 189   0.0000       0.905498        24.6399 
 190   0.0000       0.910060        24.7640 
 191   0.0000       0.916482        24.9388 
 192   0.0000       0.920756        25.0551 
 193   0.0000       0.923142        25.1200 
 194   0.0000       0.924964        25.1696 
 195   0.0000       0.931520        25.3480 
 196   0.0000       0.932060        25.3626 
 197   0.0000       0.936409        25.4810 
 198   0.0000       0.943806        25.6823 
 199   0.0000       0.947924        25.7943 
 200   0.0000       0.951418        25.8894 
 201   0.0000       0.959593        26.1118 
 202   0.0000       0.965358        26.2687 
 203   0.0000       0.970013        26.3954 
 204   0.0000       0.974874        26.5277 
 205   0.0000       0.981710        26.7137 
 206   0.0000       0.986791        26.8520 
 207   0.0000       0.991508        26.9803 
 208   0.0000       1.001975        27.2651 
 209   0.0000       1.006965        27.4009 
 210   0.0000       1.016928        27.6720 
 211   0.0000       1.019015        27.7288 
 212   0.0000       1.029720        28.0201 
 213   0.0000       1.036109        28.1940 
 214   0.0000       1.052376        28.6366 
 215   0.0000       1.058782        28.8109 
 216   0.0000       1.068291        29.0697 
 217   0.0000       1.074345        29.2344 
 218   0.0000       1.087187        29.5839 
 219   0.0000       1.092030        29.7157 
 220   0.0000       1.101527        29.9741 
 221   0.0000       1.125690        30.6316 
 222   0.0000       1.130409        30.7600 
 223   0.0000       1.135517        30.8990 
 224   0.0000       1.149069        31.2678 
 225   0.0000       1.159945        31.5637 
 226   0.0000       1.165044        31.7024 
 227   0.0000       1.189887        32.3785 
 228   0.0000       1.193588        32.4792 
 229   0.0000       1.223455        33.2919 
 230   0.0000       1.225468        33.3467 
 231   0.0000       1.254734        34.1430 
 232   0.0000       1.262702        34.3599 
 233   0.0000       1.272062        34.6146 
 234   0.0000       1.278624        34.7931 
 235   0.0000       1.297630        35.3103 
 236   0.0000       1.307412        35.5765 
 237   0.0000       1.313211        35.7343 
 238   0.0000       1.323055        36.0022 
 239   0.0000       1.352499        36.8034 
 240   0.0000       1.363787        37.1105 
 241   0.0000       1.370661        37.2976 
 242   0.0000       1.377865        37.4936 
 243   0.0000       1.402092        38.1529 
 244   0.0000       1.409010        38.3411 
 245   0.0000       1.420853        38.6634 
 246   0.0000       1.427653        38.8484 
 247   0.0000       1.435341        39.0576 
 248   0.0000       1.442655        39.2566 
 249   0.0000       1.457068        39.6488 
 250   0.0000       1.464458        39.8499 
 251   0.0000       1.473124        40.0857 
 252   0.0000       1.494934        40.6792 
 253   0.0000       1.499213        40.7957 
 254   0.0000       1.505483        40.9663 
 255   0.0000       1.516581        41.2683 
 256   0.0000       1.521522        41.4027 
 257   0.0000       1.525108        41.5003 
 258   0.0000       1.533445        41.7272 
 259   0.0000       1.548641        42.1407 
 260   0.0000       1.554128        42.2900 
 261   0.0000       1.563876        42.5552 
 262   0.0000       1.573788        42.8250 
 263   0.0000       1.585962        43.1562 
 264   0.0000       1.596008        43.4296 
 265   0.0000       1.612179        43.8696 
 266   0.0000       1.624815        44.2135 
 267   0.0000       1.664556        45.2949 
 268   0.0000       1.698037        46.2059 
 269   0.0000       1.709019        46.5048 
 270   0.0000       1.728258        47.0283 
 271   0.0000       1.741354        47.3846 
 272   0.0000       1.753471        47.7144 
 273   0.0000       1.787676        48.6451 
 274   0.0000       1.793846        48.8130 
 275   0.0000       1.799217        48.9592 
 276   0.0000       1.808022        49.1988 
 277   0.0000       1.815528        49.4030 
 278   0.0000       1.819904        49.5221 
 279   0.0000       1.831342        49.8333 
 280   0.0000       1.840227        50.0751 
 281   0.0000       1.875764        51.0421 
 282   0.0000       1.887041        51.3490 
 283   0.0000       1.902514        51.7700 
 284   0.0000       1.910557        51.9889 
 285   0.0000       1.922624        52.3173 
 286   0.0000       1.945692        52.9450 
 287   0.0000       1.956509        53.2393 
 288   0.0000       1.962170        53.3934 
 289   0.0000       1.975080        53.7447 
 290   0.0000       1.985234        54.0210 
 291   0.0000       1.989856        54.1467 
 292   0.0000       1.998787        54.3898 
 293   0.0000       2.009391        54.6783 
 294   0.0000       2.019792        54.9613 
 295   0.0000       2.030180        55.2440 
 296   0.0000       2.040390        55.5218 
 297   0.0000       2.041517        55.5525 
 298   0.0000       2.045469        55.6600 
 299   0.0000       2.053890        55.8892 
 300   0.0000       2.058873        56.0248 
 301   0.0000       2.067212        56.2517 
 302   0.0000       2.074844        56.4594 
 303   0.0000       2.078502        56.5589 
 304   0.0000       2.081678        56.6453 
 305   0.0000       2.092633        56.9434 
 306   0.0000       2.095424        57.0194 
 307   0.0000       2.102854        57.2216 
 308   0.0000       2.111737        57.4633 
 309   0.0000       2.123986        57.7966 
 310   0.0000       2.124844        57.8199 
 311   0.0000       2.129977        57.9596 
 312   0.0000       2.134701        58.0882 
 313   0.0000       2.141110        58.2626 
 314   0.0000       2.150075        58.5065 
 315   0.0000       2.159481        58.7625 
 316   0.0000       2.168406        59.0053 
 317   0.0000       2.173837        59.1531 
 318   0.0000       2.182072        59.3772 
 319   0.0000       2.186453        59.4964 
 320   0.0000       2.196588        59.7722 
 321   0.0000       2.201197        59.8976 
 322   0.0000       2.205675        60.0195 
 323   0.0000       2.207907        60.0802 
 324   0.0000       2.221319        60.4452 
 325   0.0000       2.231719        60.7282 
 326   0.0000       2.240894        60.9778 
 327   0.0000       2.249163        61.2028 
 328   0.0000       2.256773        61.4099 
 329   0.0000       2.257893        61.4404 
 330   0.0000       2.268905        61.7400 
 331   0.0000       2.275160        61.9102 
 332   0.0000       2.285734        62.1980 
 333   0.0000       2.302501        62.6542 
 334   0.0000       2.312204        62.9183 
 335   0.0000       2.320400        63.1413 
 336   0.0000       2.331991        63.4567 
 337   0.0000       2.338608        63.6368 
 338   0.0000       2.356212        64.1158 
 339   0.0000       2.367815        64.4315 
 340   0.0000       2.371514        64.5322 
 341   0.0000       2.413277        65.6686 
 342   0.0000       2.417283        65.7776 
 343   0.0000       2.435298        66.2678 
 344   0.0000       2.441121        66.4263 
 345   0.0000       2.447106        66.5891 
 346   0.0000       2.453991        66.7765 
 347   0.0000       2.471273        67.2468 
 348   0.0000       2.478244        67.4364 
 349   0.0000       2.517412        68.5023 
 350   0.0000       2.520747        68.5930 
 351   0.0000       2.548204        69.3402 
 352   0.0000       2.557508        69.5933 
 353   0.0000       2.566811        69.8465 
 354   0.0000       2.568133        69.8824 
 355   0.0000       2.575172        70.0740 
 356   0.0000       2.583601        70.3034 
 357   0.0000       2.586916        70.3936 
 358   0.0000       2.600949        70.7754 
 359   0.0000       2.601987        70.8037 
 360   0.0000       2.614102        71.1333 
 361   0.0000       2.623098        71.3781 
 362   0.0000       2.625712        71.4493 
 363   0.0000       2.635935        71.7274 
 364   0.0000       2.638186        71.7887 
 365   0.0000       2.645350        71.9836 
 366   0.0000       2.652674        72.1829 
 367   0.0000       2.663233        72.4703 
 368   0.0000       2.697336        73.3982 
 369   0.0000       2.711175        73.7748 
 370   0.0000       2.720183        74.0200 
 371   0.0000       2.734598        74.4122 
 372   0.0000       2.738707        74.5240 
 373   0.0000       2.750950        74.8571 
 374   0.0000       2.757701        75.0408 
 375   0.0000       2.774295        75.4924 
 376   0.0000       2.777062        75.5677 
 377   0.0000       2.820779        76.7573 
 378   0.0000       2.832253        77.0695 
 379   0.0000       2.880905        78.3934 
 380   0.0000       2.901124        78.9436 
 381   0.0000       2.915330        79.3302 
 382   0.0000       2.932597        79.8000 
 383   0.0000       2.933650        79.8287 
 384   0.0000       2.949293        80.2543 
 385   0.0000       2.952602        80.3444 
 386   0.0000       2.965382        80.6921 
 387   0.0000       2.976944        81.0068 
 388   0.0000       2.985680        81.2445 
 389   0.0000       2.992668        81.4346 
 390   0.0000       3.010642        81.9237 
 391   0.0000       3.017892        82.1210 
 392   0.0000       3.031204        82.4833 
 393   0.0000       3.047989        82.9400 
 394   0.0000       3.077542        83.7442 
 395   0.0000       3.079813        83.8060 
 396   0.0000       3.092585        84.1535 
 397   0.0000       3.120919        84.9245 
 398   0.0000       3.127755        85.1105 
 399   0.0000       3.172740        86.3346 
 400   0.0000       3.180331        86.5412 
 401   0.0000       3.184660        86.6590 
 402   0.0000       3.197788        87.0162 
 403   0.0000       3.206151        87.2438 
 404   0.0000       3.224427        87.7411 
 405   0.0000       3.240867        88.1885 
 406   0.0000       3.247973        88.3818 
 407   0.0000       3.259959        88.7080 
 408   0.0000       3.269590        88.9701 
 409   0.0000       3.273174        89.0676 
 410   0.0000       3.294847        89.6573 
 411   0.0000       3.298249        89.7499 
 412   0.0000       3.333380        90.7059 
 413   0.0000       3.341544        90.9280 
 414   0.0000       3.359808        91.4250 
 415   0.0000       3.383981        92.0828 
 416   0.0000       3.389212        92.2252 
 417   0.0000       3.396702        92.4290 
 418   0.0000       3.425971        93.2254 
 419   0.0000       3.458433        94.1088 
 420   0.0000       3.486534        94.8734 
 421   0.0000       3.491388        95.0055 
 422   0.0000       3.517708        95.7217 
 423   0.0000       3.519330        95.7658 
 424   0.0000       3.584835        97.5483 
 425   0.0000       3.602709        98.0347 
 426   0.0000       3.645367        99.1955 
 427   0.0000       3.725890       101.3866 
 428   0.0000       3.814897       103.8086 
 429   0.0000       3.970362       108.0390 
 430   0.0000       4.033003       109.7436 

                    ********************************
                    * MULLIKEN POPULATION ANALYSIS *
                    ********************************

-----------------------
MULLIKEN ATOMIC CHARGES
-----------------------
   0 C :    0.007732
   1 C :   -0.217555
   2 C :    0.198872
   3 N :   -0.636796
   4 C :    0.135706
   5 C :    0.152630
   6 C :    0.222718
   7 N :   -0.674791
   8 C :    0.276436
   9 C :   -0.098700
  10 C :   -0.007889
  11 C :   -0.046379
  12 C :    0.000919
  13 C :   -0.159919
  14 S :    0.144903
  15 C :   -0.138722
  16 C :   -0.010741
  17 C :    0.027700
  18 C :   -0.176236
  19 C :    0.040509
  20 N :   -0.104384
  21 C :   -0.016167
  22 C :    0.272011
  23 H :    0.033228
  24 H :    0.022619
  25 H :    0.053893
  26 H :    0.053823
  27 H :    0.017104
  28 H :    0.013559
  29 H :    0.005773
  30 H :    0.038679
  31 H :    0.046038
  32 H :    0.036251
  33 H :    0.029528
  34 H :    0.003937
  35 H :    0.062385
  36 H :    0.038939
  37 H :    0.046931
  38 H :    0.041745
  39 H :    0.044127
  40 H :    0.043139
  41 H :    0.053649
  42 H :    0.056142
  43 H :    0.066655
Sum of atomic charges:   -0.0000000

--------------------------------
MULLIKEN REDUCED ORBITAL CHARGES
--------------------------------
  0 C s       :     3.030491  s :     3.030491
      pz      :     0.995484  p :     2.924335
      px      :     0.998112
      py      :     0.930739
      dz2     :     0.011303  d :     0.037442
      dxz     :     0.004249
      dyz     :     0.004402
      dx2y2   :     0.008598
      dxy     :     0.008890
  1 C s       :     3.196211  s :     3.196211
      pz      :     0.957272  p :     2.968388
      px      :     0.993435
      py      :     1.017681
      dz2     :     0.014855  d :     0.052956
      dxz     :     0.008874
      dyz     :     0.007743
      dx2y2   :     0.009994
      dxy     :     0.011490
  2 C s       :     3.001255  s :     3.001255
      pz      :     0.978099  p :     2.740536
      px      :     0.947357
      py      :     0.815080
      dz2     :     0.014223  d :     0.059337
      dxz     :     0.007699
      dyz     :     0.010005
      dx2y2   :     0.012356
      dxy     :     0.015055
  3 N s       :     3.623820  s :     3.623820
      pz      :     1.663794  p :     3.980056
      px      :     1.145583
      py      :     1.170679
      dz2     :     0.004175  d :     0.032920
      dxz     :     0.005451
      dyz     :     0.006764
      dx2y2   :     0.009926
      dxy     :     0.006606
  4 C s       :     3.009515  s :     3.009515
      pz      :     0.893235  p :     2.803103
      px      :     0.996815
      py      :     0.913053
      dz2     :     0.017168  d :     0.051676
      dxz     :     0.004541
      dyz     :     0.010110
      dx2y2   :     0.011539
      dxy     :     0.008319
  5 C s       :     3.004425  s :     3.004425
      pz      :     0.986683  p :     2.790837
      px      :     0.776688
      py      :     1.027466
      dz2     :     0.011375  d :     0.052108
      dxz     :     0.011109
      dyz     :     0.006511
      dx2y2   :     0.013711
      dxy     :     0.009402
  6 C s       :     3.008005  s :     3.008005
      pz      :     0.881502  p :     2.712042
      px      :     0.785245
      py      :     1.045294
      dz2     :     0.016046  d :     0.057235
      dxz     :     0.013754
      dyz     :     0.006054
      dx2y2   :     0.009568
      dxy     :     0.011813
  7 N s       :     3.516750  s :     3.516750
      pz      :     1.607734  p :     4.129780
      px      :     1.311313
      py      :     1.210732
      dz2     :     0.003198  d :     0.028262
      dxz     :     0.004973
      dyz     :     0.004571
      dx2y2   :     0.006375
      dxy     :     0.009144
  8 C s       :     2.981769  s :     2.981769
      pz      :     0.900587  p :     2.671377
      px      :     0.975003
      py      :     0.795787
      dz2     :     0.011515  d :     0.070418
      dxz     :     0.010895
      dyz     :     0.013358
      dx2y2   :     0.016651
      dxy     :     0.017999
  9 C s       :     3.177012  s :     3.177012
      pz      :     0.991122  p :     2.879757
      px      :     0.925640
      py      :     0.962994
      dz2     :     0.005954  d :     0.041931
      dxz     :     0.005797
      dyz     :     0.007517
      dx2y2   :     0.011376
      dxy     :     0.011287
 10 C s       :     3.117913  s :     3.117913
      pz      :     0.963813  p :     2.845057
      px      :     0.940656
      py      :     0.940589
      dz2     :     0.004551  d :     0.044919
      dxz     :     0.008672
      dyz     :     0.005963
      dx2y2   :     0.012748
      dxy     :     0.012985
 11 C s       :     3.126561  s :     3.126561
      pz      :     0.988170  p :     2.875324
      px      :     0.944544
      py      :     0.942610
      dz2     :     0.004730  d :     0.044494
      dxz     :     0.008602
      dyz     :     0.005316
      dx2y2   :     0.012579
      dxy     :     0.013267
 12 C s       :     3.173278  s :     3.173278
      pz      :     0.953226  p :     2.781836
      px      :     0.917748
      py      :     0.910862
      dz2     :     0.006388  d :     0.043967
      dxz     :     0.005535
      dyz     :     0.007775
      dx2y2   :     0.013003
      dxy     :     0.011266
 13 C s       :     2.926812  s :     2.926812
      pz      :     1.055306  p :     3.181533
      px      :     1.071416
      py      :     1.054811
      dz2     :     0.006831  d :     0.051573
      dxz     :     0.009781
      dyz     :     0.007410
      dx2y2   :     0.012135
      dxy     :     0.015416
 14 S s       :     5.830990  s :     5.830990
      pz      :     3.719809  p :     9.920769
      px      :     3.278322
      py      :     2.922639
      dz2     :     0.013767  d :     0.103338
      dxz     :     0.015068
      dyz     :     0.013992
      dx2y2   :     0.010355
      dxy     :     0.050157
 15 C s       :     2.923783  s :     2.923783
      pz      :     1.027774  p :     3.162841
      px      :     1.088280
      py      :     1.046786
      dz2     :     0.004882  d :     0.052099
      dxz     :     0.008301
      dyz     :     0.007474
      dx2y2   :     0.015419
      dxy     :     0.016024
 16 C s       :     3.177783  s :     3.177783
      pz      :     0.983537  p :     2.789891
      px      :     0.925390
      py      :     0.880964
      dz2     :     0.004264  d :     0.043067
      dxz     :     0.003808
      dyz     :     0.007745
      dx2y2   :     0.013776
      dxy     :     0.013474
 17 C s       :     3.150484  s :     3.150484
      pz      :     0.964162  p :     2.777605
      px      :     0.908285
      py      :     0.905158
      dz2     :     0.003883  d :     0.044211
      dxz     :     0.007383
      dyz     :     0.004954
      dx2y2   :     0.014556
      dxy     :     0.013435
 18 C s       :     2.994309  s :     2.994309
      pz      :     1.084324  p :     3.127282
      px      :     1.032441
      py      :     1.010517
      dz2     :     0.004873  d :     0.054645
      dxz     :     0.008498
      dyz     :     0.006489
      dx2y2   :     0.016289
      dxy     :     0.018496
 19 C s       :     3.039005  s :     3.039005
      pz      :     0.919170  p :     2.860745
      px      :     0.951914
      py      :     0.989662
      dz2     :     0.006237  d :     0.059741
      dxz     :     0.006331
      dyz     :     0.015739
      dx2y2   :     0.017443
      dxy     :     0.013990
 20 N s       :     3.621742  s :     3.621742
      pz      :     1.092880  p :     3.443835
      px      :     1.108515
      py      :     1.242441
      dz2     :     0.004110  d :     0.038806
      dxz     :     0.003618
      dyz     :     0.009112
      dx2y2   :     0.011777
      dxy     :     0.010188
 21 C s       :     3.212414  s :     3.212414
      pz      :     0.987503  p :     2.762236
      px      :     0.904405
      py      :     0.870328
      dz2     :     0.004307  d :     0.041517
      dxz     :     0.003664
      dyz     :     0.007728
      dx2y2   :     0.012948
      dxy     :     0.012870
 22 C s       :     2.982451  s :     2.982451
      pz      :     0.954155  p :     2.675963
      px      :     0.960676
      py      :     0.761132
      dz2     :     0.006481  d :     0.069575
      dxz     :     0.010098
      dyz     :     0.011369
      dx2y2   :     0.022050
      dxy     :     0.019578
 23 H s       :     0.941660  s :     0.941660
      pz      :     0.017554  p :     0.025112
      px      :     0.004030
      py      :     0.003527
 24 H s       :     0.952428  s :     0.952428
      pz      :     0.005527  p :     0.024953
      px      :     0.007903
      py      :     0.011523
 25 H s       :     0.920474  s :     0.920474
      pz      :     0.005947  p :     0.025633
      px      :     0.016104
      py      :     0.003582
 26 H s       :     0.923087  s :     0.923087
      pz      :     0.004353  p :     0.023089
      px      :     0.008543
      py      :     0.010193
 27 H s       :     0.959769  s :     0.959769
      pz      :     0.005782  p :     0.023127
      px      :     0.007809
      py      :     0.009535
 28 H s       :     0.963691  s :     0.963691
      pz      :     0.017209  p :     0.022750
      px      :     0.002796
      py      :     0.002746
 29 H s       :     0.970119  s :     0.970119
      pz      :     0.016598  p :     0.024108
      px      :     0.003893
      py      :     0.003617
 30 H s       :     0.936594  s :     0.936594
      pz      :     0.003729  p :     0.024727
      px      :     0.017522
      py      :     0.003476
 31 H s       :     0.929500  s :     0.929500
      pz      :     0.003677  p :     0.024462
      px      :     0.005683
      py      :     0.015102
 32 H s       :     0.939267  s :     0.939267
      pz      :     0.004488  p :     0.024482
      px      :     0.004587
      py      :     0.015408
 33 H s       :     0.945947  s :     0.945947
      pz      :     0.010200  p :     0.024525
      px      :     0.004975
      py      :     0.009350
 34 H s       :     0.971773  s :     0.971773
      pz      :     0.016140  p :     0.024289
      px      :     0.002896
      py      :     0.005253
 35 H s       :     0.913037  s :     0.913037
      pz      :     0.003444  p :     0.024578
      px      :     0.008604
      py      :     0.012530
 36 H s       :     0.936116  s :     0.936116
      pz      :     0.004403  p :     0.024945
      px      :     0.006707
      py      :     0.013835
 37 H s       :     0.927186  s :     0.927186
      pz      :     0.004300  p :     0.025882
      px      :     0.018278
      py      :     0.003304
 38 H s       :     0.932472  s :     0.932472
      pz      :     0.007019  p :     0.025783
      px      :     0.008525
      py      :     0.010239
 39 H s       :     0.930119  s :     0.930119
      pz      :     0.006485  p :     0.025754
      px      :     0.004975
      py      :     0.014294
 40 H s       :     0.930832  s :     0.930832
      pz      :     0.003792  p :     0.026029
      px      :     0.018869
      py      :     0.003368
 41 H s       :     0.920319  s :     0.920319
      pz      :     0.003962  p :     0.026032
      px      :     0.019536
      py      :     0.002535
 42 H s       :     0.917765  s :     0.917765
      pz      :     0.004725  p :     0.026093
      px      :     0.007020
      py      :     0.014348
 43 H s       :     0.906777  s :     0.906777
      pz      :     0.004021  p :     0.026567
      px      :     0.019924
      py      :     0.002622


                     *******************************
                     * LOEWDIN POPULATION ANALYSIS *
                     *******************************

----------------------
LOEWDIN ATOMIC CHARGES
----------------------
   0 C :   -0.027279
   1 C :   -0.041954
   2 C :    0.068056
   3 N :   -0.207962
   4 C :    0.054103
   5 C :    0.056562
   6 C :    0.092526
   7 N :   -0.133385
   8 C :    0.049500
   9 C :   -0.047399
  10 C :   -0.013532
  11 C :   -0.040492
  12 C :   -0.026082
  13 C :   -0.178765
  14 S :    0.320047
  15 C :   -0.148639
  16 C :   -0.030138
  17 C :    0.000495
  18 C :   -0.082311
  19 C :    0.009920
  20 N :   -0.104546
  21 C :   -0.002287
  22 C :    0.051082
  23 H :    0.016898
  24 H :    0.012653
  25 H :    0.021274
  26 H :    0.013673
  27 H :    0.009031
  28 H :   -0.002583
  29 H :   -0.006076
  30 H :    0.011439
  31 H :    0.018616
  32 H :    0.014839
  33 H :    0.010165
  34 H :   -0.006279
  35 H :    0.014679
  36 H :    0.018901
  37 H :    0.029491
  38 H :    0.028800
  39 H :    0.029149
  40 H :    0.029186
  41 H :    0.034582
  42 H :    0.039813
  43 H :    0.044231

-------------------------------
LOEWDIN REDUCED ORBITAL CHARGES
-------------------------------
  0 C s       :     2.831882  s :     2.831882
      pz      :     1.047989  p :     3.111630
      px      :     1.048009
      py      :     1.015632
      dz2     :     0.025254  d :     0.083768
      dxz     :     0.009376
      dyz     :     0.010154
      dx2y2   :     0.018899
      dxy     :     0.020085
  1 C s       :     2.847941  s :     2.847941
      pz      :     1.011019  p :     3.083630
      px      :     1.033090
      py      :     1.039520
      dz2     :     0.031526  d :     0.110383
      dxz     :     0.018592
      dyz     :     0.015585
      dx2y2   :     0.020465
      dxy     :     0.024216
  2 C s       :     2.835448  s :     2.835448
      pz      :     1.037871  p :     2.967869
      px      :     1.011571
      py      :     0.918426
      dz2     :     0.031162  d :     0.128627
      dxz     :     0.017098
      dyz     :     0.022052
      dx2y2   :     0.026016
      dxy     :     0.032298
  3 N s       :     3.160566  s :     3.160566
      pz      :     1.638398  p :     3.986972
      px      :     1.159749
      py      :     1.188825
      dz2     :     0.007267  d :     0.060424
      dxz     :     0.008598
      dyz     :     0.011309
      dx2y2   :     0.019470
      dxy     :     0.013781
  4 C s       :     2.832871  s :     2.832871
      pz      :     0.987264  p :     2.999745
      px      :     1.034263
      py      :     0.978219
      dz2     :     0.039828  d :     0.113280
      dxz     :     0.009484
      dyz     :     0.021204
      dx2y2   :     0.025294
      dxy     :     0.017471
  5 C s       :     2.832200  s :     2.832200
      pz      :     1.048550  p :     2.996752
      px      :     0.886831
      py      :     1.061372
      dz2     :     0.025186  d :     0.114486
      dxz     :     0.025251
      dyz     :     0.014537
      dx2y2   :     0.028697
      dxy     :     0.020815
  6 C s       :     2.829570  s :     2.829570
      pz      :     0.991309  p :     2.953488
      px      :     0.889768
      py      :     1.072410
      dz2     :     0.036158  d :     0.124417
      dxz     :     0.029037
      dyz     :     0.012776
      dx2y2   :     0.020119
      dxy     :     0.026328
  7 N s       :     3.064622  s :     3.064622
      pz      :     1.546485  p :     4.010114
      px      :     1.255037
      py      :     1.208593
      dz2     :     0.005802  d :     0.058648
      dxz     :     0.009503
      dyz     :     0.009234
      dx2y2   :     0.015073
      dxy     :     0.019036
  8 C s       :     2.828479  s :     2.828479
      pz      :     0.959376  p :     2.967932
      px      :     1.060678
      py      :     0.947878
      dz2     :     0.022966  d :     0.154089
      dxz     :     0.023054
      dyz     :     0.027909
      dx2y2   :     0.038922
      dxy     :     0.041238
  9 C s       :     2.851629  s :     2.851629
      pz      :     1.015252  p :     3.101270
      px      :     1.036880
      py      :     1.049138
      dz2     :     0.011770  d :     0.094499
      dxz     :     0.012048
      dyz     :     0.016612
      dx2y2   :     0.027637
      dxy     :     0.026431
 10 C s       :     2.849306  s :     2.849306
      pz      :     0.976744  p :     3.063699
      px      :     1.059536
      py      :     1.027419
      dz2     :     0.008640  d :     0.100527
      dxz     :     0.018532
      dyz     :     0.012336
      dx2y2   :     0.029579
      dxy     :     0.031441
 11 C s       :     2.846842  s :     2.846842
      pz      :     1.001634  p :     3.093118
      px      :     1.061145
      py      :     1.030339
      dz2     :     0.009071  d :     0.100532
      dxz     :     0.018579
      dyz     :     0.010946
      dx2y2   :     0.030097
      dxy     :     0.031839
 12 C s       :     2.852301  s :     2.852301
      pz      :     0.988837  p :     3.073912
      px      :     1.046057
      py      :     1.039018
      dz2     :     0.012593  d :     0.099869
      dxz     :     0.011181
      dyz     :     0.017458
      dx2y2   :     0.032241
      dxy     :     0.026397
 13 C s       :     2.894776  s :     2.894776
      pz      :     1.054916  p :     3.174370
      px      :     1.066238
      py      :     1.053216
      dz2     :     0.013125  d :     0.109618
      dxz     :     0.019956
      dyz     :     0.014370
      dx2y2   :     0.028222
      dxy     :     0.033945
 14 S s       :     5.493433  s :     5.493433
      pz      :     3.696672  p :    10.054268
      px      :     3.371503
      py      :     2.986093
      dz2     :     0.017488  d :     0.132252
      dxz     :     0.018373
      dyz     :     0.018741
      dx2y2   :     0.014916
      dxy     :     0.062733
 15 C s       :     2.898502  s :     2.898502
      pz      :     1.015627  p :     3.140354
      px      :     1.079619
      py      :     1.045108
      dz2     :     0.009101  d :     0.109783
      dxz     :     0.015930
      dyz     :     0.013686
      dx2y2   :     0.034638
      dxy     :     0.036428
 16 C s       :     2.853098  s :     2.853098
      pz      :     0.983224  p :     3.079202
      px      :     1.044076
      py      :     1.051902
      dz2     :     0.008280  d :     0.097838
      dxz     :     0.006333
      dyz     :     0.015754
      dx2y2   :     0.035392
      dxy     :     0.032079
 17 C s       :     2.847202  s :     2.847202
      pz      :     0.965698  p :     3.052609
      px      :     1.039961
      py      :     1.046950
      dz2     :     0.007338  d :     0.099693
      dxz     :     0.014871
      dyz     :     0.008957
      dx2y2   :     0.034633
      dxy     :     0.033895
 18 C s       :     2.827077  s :     2.827077
      pz      :     1.030352  p :     3.131650
      px      :     1.073497
      py      :     1.027801
      dz2     :     0.009833  d :     0.123585
      dxz     :     0.016885
      dyz     :     0.013358
      dx2y2   :     0.038736
      dxy     :     0.044771
 19 C s       :     2.897713  s :     2.897713
      pz      :     0.916485  p :     2.971172
      px      :     0.966006
      py      :     1.088681
      dz2     :     0.013189  d :     0.121195
      dxz     :     0.011964
      dyz     :     0.029966
      dx2y2   :     0.034339
      dxy     :     0.031736
 20 N s       :     3.415900  s :     3.415900
      pz      :     1.106738  p :     3.630436
      px      :     1.162141
      py      :     1.361556
      dz2     :     0.006851  d :     0.058210
      dxz     :     0.004875
      dyz     :     0.012363
      dx2y2   :     0.016399
      dxy     :     0.017723
 21 C s       :     2.851174  s :     2.851174
      pz      :     0.986580  p :     3.057678
      px      :     1.047155
      py      :     1.023942
      dz2     :     0.008224  d :     0.093435
      dxz     :     0.006173
      dyz     :     0.015434
      dx2y2   :     0.032780
      dxy     :     0.030825
 22 C s       :     2.827898  s :     2.827898
      pz      :     0.955892  p :     2.969399
      px      :     1.042806
      py      :     0.970701
      dz2     :     0.012782  d :     0.151621
      dxz     :     0.019975
      dyz     :     0.022214
      dx2y2   :     0.050913
      dxy     :     0.045738
 23 H s       :     0.917627  s :     0.917627
      pz      :     0.040706  p :     0.065474
      px      :     0.012522
      py      :     0.012246
 24 H s       :     0.922138  s :     0.922138
      pz      :     0.015181  p :     0.065209
      px      :     0.020566
      py      :     0.029461
 25 H s       :     0.911863  s :     0.911863
      pz      :     0.016298  p :     0.066863
      px      :     0.038041
      py      :     0.012524
 26 H s       :     0.916877  s :     0.916877
      pz      :     0.016558  p :     0.069450
      px      :     0.024703
      py      :     0.028188
 27 H s       :     0.927108  s :     0.927108
      pz      :     0.016350  p :     0.063862
      px      :     0.022724
      py      :     0.024788
 28 H s       :     0.936822  s :     0.936822
      pz      :     0.041729  p :     0.065761
      px      :     0.012437
      py      :     0.011595
 29 H s       :     0.941235  s :     0.941235
      pz      :     0.040994  p :     0.064841
      px      :     0.012252
      py      :     0.011596
 30 H s       :     0.924482  s :     0.924482
      pz      :     0.010877  p :     0.064079
      px      :     0.041640
      py      :     0.011562
 31 H s       :     0.917752  s :     0.917752
      pz      :     0.010840  p :     0.063632
      px      :     0.016032
      py      :     0.036760
 32 H s       :     0.921955  s :     0.921955
      pz      :     0.012355  p :     0.063206
      px      :     0.014290
      py      :     0.036561
 33 H s       :     0.926263  s :     0.926263
      pz      :     0.024824  p :     0.063573
      px      :     0.015187
      py      :     0.023562
 34 H s       :     0.941202  s :     0.941202
      pz      :     0.038557  p :     0.065077
      px      :     0.011508
      py      :     0.015012
 35 H s       :     0.916295  s :     0.916295
      pz      :     0.013876  p :     0.069026
      px      :     0.023783
      py      :     0.031368
 36 H s       :     0.913487  s :     0.913487
      pz      :     0.015271  p :     0.067612
      px      :     0.018628
      py      :     0.033713
 37 H s       :     0.900357  s :     0.900357
      pz      :     0.014231  p :     0.070153
      px      :     0.043610
      py      :     0.012312
 38 H s       :     0.902239  s :     0.902239
      pz      :     0.019923  p :     0.068961
      px      :     0.022885
      py      :     0.026153
 39 H s       :     0.902226  s :     0.902226
      pz      :     0.018936  p :     0.068626
      px      :     0.015403
      py      :     0.034286
 40 H s       :     0.901490  s :     0.901490
      pz      :     0.013223  p :     0.069324
      px      :     0.044140
      py      :     0.011961
 41 H s       :     0.896236  s :     0.896236
      pz      :     0.013699  p :     0.069182
      px      :     0.045627
      py      :     0.009856
 42 H s       :     0.890926  s :     0.890926
      pz      :     0.015196  p :     0.069261
      px      :     0.019425
      py      :     0.034641
 43 H s       :     0.884013  s :     0.884013
      pz      :     0.014071  p :     0.071755
      px      :     0.047835
      py      :     0.009850


                      *****************************
                      * MAYER POPULATION ANALYSIS *
                      *****************************

  NA   - Mulliken gross atomic population
  ZA   - Total nuclear charge
  QA   - Mulliken gross atomic charge
  VA   - Mayer's total valence
  BVA  - Mayer's bonded valence
  FA   - Mayer's free valence

  ATOM       NA         ZA         QA         VA         BVA        FA
  0 C      5.9923     6.0000     0.0077     3.9104     3.9104    -0.0000
  1 C      6.2176     6.0000    -0.2176     3.9050     3.9050    -0.0000
  2 C      5.8011     6.0000     0.1989     3.8009     3.8009    -0.0000
  3 N      7.6368     7.0000    -0.6368     2.8189     2.8189    -0.0000
  4 C      5.8643     6.0000     0.1357     3.8653     3.8653    -0.0000
  5 C      5.8474     6.0000     0.1526     3.8773     3.8773    -0.0000
  6 C      5.7773     6.0000     0.2227     3.7546     3.7546    -0.0000
  7 N      7.6748     7.0000    -0.6748     2.8663     2.8663    -0.0000
  8 C      5.7236     6.0000     0.2764     3.8778     3.8778    -0.0000
  9 C      6.0987     6.0000    -0.0987     3.9415     3.9415    -0.0000
 10 C      6.0079     6.0000    -0.0079     3.8652     3.8652     0.0000
 11 C      6.0464     6.0000    -0.0464     3.8935     3.8935     0.0000
 12 C      5.9991     6.0000     0.0009     3.9527     3.9527    -0.0000
 13 C      6.1599     6.0000    -0.1599     3.9033     3.9033     0.0000
 14 S     15.8551    16.0000     0.1449     2.0469     2.0469    -0.0000
 15 C      6.1387     6.0000    -0.1387     3.9190     3.9190    -0.0000
 16 C      6.0107     6.0000    -0.0107     3.9656     3.9656    -0.0000
 17 C      5.9723     6.0000     0.0277     3.9357     3.9357    -0.0000
 18 C      6.1762     6.0000    -0.1762     3.8480     3.8480    -0.0000
 19 C      5.9595     6.0000     0.0405     4.0336     4.0336    -0.0000
 20 N      7.1044     7.0000    -0.1044     3.0985     3.0985    -0.0000
 21 C      6.0162     6.0000    -0.0162     3.9798     3.9798     0.0000
 22 C      5.7280     6.0000     0.2720     3.8937     3.8937    -0.0000
 23 H      0.9668     1.0000     0.0332     0.9823     0.9823    -0.0000
 24 H      0.9774     1.0000     0.0226     0.9869     0.9869    -0.0000
 25 H      0.9461     1.0000     0.0539     0.9809     0.9809    -0.0000
 26 H      0.9462     1.0000     0.0538     0.9686     0.9686    -0.0000
 27 H      0.9829     1.0000     0.0171     0.9883     0.9883     0.0000
 28 H      0.9864     1.0000     0.0136     0.9875     0.9875    -0.0000
 29 H      0.9942     1.0000     0.0058     0.9830     0.9830    -0.0000
 30 H      0.9613     1.0000     0.0387     0.9891     0.9891    -0.0000
 31 H      0.9540     1.0000     0.0460     0.9869     0.9869     0.0000
 32 H      0.9637     1.0000     0.0363     0.9863     0.9863     0.0000
 33 H      0.9705     1.0000     0.0295     0.9843     0.9843    -0.0000
 34 H      0.9961     1.0000     0.0039     0.9814     0.9814    -0.0000
 35 H      0.9376     1.0000     0.0624     0.9984     0.9984    -0.0000
 36 H      0.9611     1.0000     0.0389     0.9956     0.9956     0.0000
 37 H      0.9531     1.0000     0.0469     0.9886     0.9886     0.0000
 38 H      0.9583     1.0000     0.0417     0.9866     0.9866     0.0000
 39 H      0.9559     1.0000     0.0441     0.9862     0.9862     0.0000
 40 H      0.9569     1.0000     0.0431     0.9953     0.9953    -0.0000
 41 H      0.9464     1.0000     0.0536     0.9959     0.9959    -0.0000
 42 H      0.9439     1.0000     0.0561     0.9932     0.9932    -0.0000
 43 H      0.9333     1.0000     0.0667     1.0044     1.0044     0.0000

  Mayer bond orders larger than 0.100000
B(  0-C ,  1-C ) :   1.0254 B(  0-C , 23-H ) :   0.9841 B(  0-C , 24-H ) :   0.9816 
B(  0-C , 25-H ) :   0.9838 B(  1-C ,  2-C ) :   1.0101 B(  1-C ,  6-C ) :   0.9783 
B(  1-C , 26-H ) :   0.9552 B(  2-C ,  3-N ) :   0.9365 B(  2-C , 27-H ) :   0.9726 
B(  2-C , 28-H ) :   0.9719 B(  3-N ,  4-C ) :   0.9340 B(  3-N ,  5-C ) :   0.9452 
B(  4-C , 29-H ) :   0.9761 B(  4-C , 30-H ) :   0.9910 B(  4-C , 31-H ) :   0.9910 
B(  5-C , 32-H ) :   0.9921 B(  5-C , 33-H ) :   0.9917 B(  5-C , 34-H ) :   0.9770 
B(  6-C ,  7-N ) :   0.8954 B(  6-C , 35-H ) :   0.9801 B(  6-C , 36-H ) :   0.9752 
B(  7-N ,  8-C ) :   0.9379 B(  7-N , 22-C ) :   0.9528 B(  8-C ,  9-C ) :   1.4219 
B(  8-C , 13-C ) :   1.4322 B(  9-C , 10-C ) :   1.4232 B(  9-C , 37-H ) :   0.9969 
B( 10-C , 11-C ) :   1.4027 B( 10-C , 38-H ) :   0.9980 B( 11-C , 12-C ) :   1.4448 
B( 11-C , 39-H ) :   1.0011 B( 12-C , 13-C ) :   1.4174 B( 12-C , 40-H ) :   0.9976 
B( 13-C , 14-S ) :   0.9584 B( 14-S , 15-C ) :   0.9756 B( 15-C , 16-C ) :   1.4164 
B( 15-C , 22-C ) :   1.4182 B( 16-C , 17-C ) :   1.4534 B( 16-C , 41-H ) :   0.9958 
B( 17-C , 18-C ) :   1.3794 B( 17-C , 42-H ) :   1.0013 B( 18-C , 19-C ) :   1.0308 
B( 18-C , 21-C ) :   1.3817 B( 19-C , 20-N ) :   3.0282 B( 21-C , 22-C ) :   1.4365 
B( 21-C , 43-H ) :   1.0026 

-------
TIMINGS
-------

Total SCF time: 0 days 0 hours 0 min 32 sec 

Total time                  ....      32.941 sec
Sum of individual times     ....      32.584 sec  ( 98.9%)

Fock matrix formation       ....      31.454 sec  ( 95.5%)
Diagonalization             ....       0.310 sec  (  0.9%)
Density matrix formation    ....       0.028 sec  (  0.1%)
Population analysis         ....       0.042 sec  (  0.1%)
Initial guess               ....       0.171 sec  (  0.5%)
Orbital Transformation      ....       0.000 sec  (  0.0%)
Orbital Orthonormalization  ....       0.000 sec  (  0.0%)
DIIS solution               ....       0.151 sec  (  0.5%)
SOSCF solution              ....       0.245 sec  (  0.7%)

Maximum memory used throughout the entire SCF-calculation: 243.7 MB

-------------------------   --------------------
FINAL SINGLE POINT ENERGY     -1291.774084926612
-------------------------   --------------------


                            ***************************************
                            *     ORCA property calculations      *
                            ***************************************

                                    ---------------------
                                    Active property flags
                                    ---------------------
   (+) Dipole Moment


------------------------------------------------------------------------------
                       ORCA ELECTRIC PROPERTIES CALCULATION
------------------------------------------------------------------------------

Dipole Moment Calculation                       ... on
Quadrupole Moment Calculation                   ... off
Polarizability Calculation                      ... off
GBWName                                         ... ./ZINC000000000188/ZINC000000000188.gbw
Electron density                                ... ./ZINC000000000188/ZINC000000000188.scfp
The origin for moment calculation is the CENTER OF MASS  = (-1.261049,  0.410126  0.506805)

-------------
DIPOLE MOMENT
-------------
                                X             Y             Z
Electronic contribution:    -25.75114       8.24057      16.61760
Nuclear contribution   :     25.85394     -10.10606     -16.72757
                        -----------------------------------------
Total Dipole Moment    :      0.10281      -1.86549      -0.10997
                        -----------------------------------------
Magnitude (a.u.)       :      1.87156
Magnitude (Debye)      :      4.75712



--------------------
Rotational spectrum 
--------------------
 
Rotational constants in cm-1:     0.010218     0.006464     0.004435 
Rotational constants in MHz :   306.337301   193.790528   132.968520 

 Dipole components along the rotational axes: 
x,y,z [a.u.] :    -1.210117     1.339246    -0.494732 
x,y,z [Debye]:    -3.075872     3.404093    -1.257509 

 

Timings for individual modules:

Sum of individual times         ...       33.625 sec (=   0.560 min)
GTO integral calculation        ...        0.439 sec (=   0.007 min)   1.3 %
SCF iterations                  ...       33.186 sec (=   0.553 min)  98.7 %
                             ****ORCA TERMINATED NORMALLY****
TOTAL RUN TIME: 0 days 0 hours 0 minutes 34 seconds 17 msec
